/*--------------------------------*- C++ -*----------------------------------*\
| =========                 |                                                 |
| \\      /  F ield         | OpenFOAM: The Open Source CFD Toolbox           |
|  \\    /   O peration     | Version:  v2006                                 |
|   \\  /    A nd           | Website:  www.openfoam.com                      |
|    \\/     M anipulation  |                                                 |
\*---------------------------------------------------------------------------*/
FoamFile
{
    version     2.0;
    format      ascii;
    class       volVectorField;
    location    "1.9";
    object      U;
}
// * * * * * * * * * * * * * * * * * * * * * * * * * * * * * * * * * * * * * //

dimensions      [0 1 -1 0 0 0 0];


internalField   nonuniform List<vector> 
33000
(
(-0.0593565 0 -0.00103568)
(-0.0817419 0 0.000242663)
(-0.0755274 0 3.42686e-05)
(-0.0757149 0 -0.000250381)
(-0.07541 0 -2.99755e-05)
(-0.0752666 0 -0.000157037)
(-0.074965 0 -0.000224687)
(-0.0746461 0 -0.000266153)
(-0.0742407 0 -0.000333688)
(-0.0737805 0 -0.000380035)
(-0.073292 0 -0.000389146)
(-0.0727848 0 -0.000402791)
(-0.0722526 0 -0.000418239)
(-0.0717006 0 -0.000448243)
(-0.0710704 0 -0.000536117)
(-0.0703506 0 -0.000590859)
(-0.0695919 0 -0.000598017)
(-0.0688109 0 -0.000613399)
(-0.0680485 0 -0.000574263)
(-0.0673638 0 -0.000497487)
(-0.0666931 0 -0.000534173)
(-0.0658452 0 -0.000753447)
(-0.0648174 0 -0.00085517)
(-0.0638268 0 -0.000722762)
(-0.0629748 0 -0.000607613)
(-0.0621465 0 -0.000654703)
(-0.0612419 0 -0.000731239)
(-0.0602087 0 -0.000864921)
(-0.0591567 0 -0.000801989)
(-0.0582743 0 -0.000641379)
(-0.057413 0 -0.000744962)
(-0.0563431 0 -0.00092567)
(-0.055151 0 -0.000919063)
(-0.0540753 0 -0.00068795)
(-0.053169 0 -0.000657294)
(-0.0522812 0 -0.000724856)
(-0.0511404 0 -0.00104693)
(-0.0498348 0 -0.00107224)
(-0.0487272 0 -0.000679942)
(-0.0477669 0 -0.000719298)
(-0.0468603 0 -0.000673443)
(-0.0459552 0 -0.000740113)
(-0.0447705 0 -0.00104713)
(-0.0434469 0 -0.00102111)
(-0.0423454 0 -0.0007266)
(-0.0413996 0 -0.000731581)
(-0.040293 0 -0.000972752)
(-0.039073 0 -0.000987302)
(-0.0379664 0 -0.000812123)
(-0.0369678 0 -0.000773864)
(-0.0359156 0 -0.000866312)
(-0.0347603 0 -0.000964215)
(-0.0335802 0 -0.000939441)
(-0.0324488 0 -0.000871021)
(-0.0313928 0 -0.000804117)
(-0.0303634 0 -0.00080864)
(-0.029309 0 -0.000840376)
(-0.0283254 0 -0.000701413)
(-0.0274898 0 -0.00061907)
(-0.0266888 0 -0.000633844)
(-0.025805 0 -0.000729533)
(-0.0248535 0 -0.000760135)
(-0.0240318 0 -0.000564329)
(-0.0233374 0 -0.000551563)
(-0.0226232 0 -0.000575857)
(-0.0218236 0 -0.000668387)
(-0.0209347 0 -0.000728215)
(-0.0200945 0 -0.000605193)
(-0.0193089 0 -0.000626865)
(-0.0184942 0 -0.000689747)
(-0.0176971 0 -0.00063699)
(-0.0169209 0 -0.000646138)
(-0.0161035 0 -0.00071029)
(-0.0151039 0 -0.00105541)
(-0.013945 0 -0.00109559)
(-0.0126097 0 -0.00140753)
(-0.0107999 0 -0.00192146)
(-0.009168 0 -0.00217818)
(-0.00716316 0 -0.000925435)
(-0.00572316 0 4.81804e-05)
(-0.00547167 0 0.000462365)
(-0.00496323 0 0.000455375)
(-0.00519209 0 9.6179e-05)
(-0.00510416 0 -0.000349936)
(-0.00506306 0 -0.000266978)
(-0.00504306 0 -0.000218291)
(-0.00482914 0 -0.000102165)
(-0.00470613 0 5.30514e-05)
(-0.00465019 0 9.06105e-05)
(-0.00461309 0 5.13847e-05)
(-0.00457601 0 -4.70499e-05)
(-0.00448076 0 -0.000122666)
(-0.00435818 0 -0.000125049)
(-0.00420925 0 -0.000121537)
(-0.00410368 0 -0.000140399)
(-0.00387356 0 -0.00023331)
(-0.0036954 0 -0.000435662)
(-0.00309677 0 -0.000547488)
(-0.00278142 0 -0.000784334)
(-0.00183698 0 -0.000447203)
(-0.00179154 0 0.000108444)
(-0.00153627 0 0.000442247)
(-0.00177094 0 0.000414309)
(-0.00174486 0 -2.56656e-06)
(-0.00184243 0 -4.29445e-05)
(-0.00202145 0 -5.44338e-05)
(-0.00210537 0 2.59246e-05)
(-0.00212953 0 3.53725e-05)
(-0.00217834 0 0.000124566)
(-0.00226494 0 0.00012391)
(-0.00234612 0 7.11154e-05)
(-0.00241104 0 4.2435e-05)
(-0.00249486 0 -1.06231e-05)
(-0.00246188 0 -6.53055e-05)
(-0.0024881 0 -0.000184739)
(-0.00219168 0 -0.000291818)
(-0.00212222 0 -0.000549608)
(-0.00140479 0 -0.000299096)
(-0.00154603 0 0.000155512)
(-0.00142894 0 0.000450721)
(-0.0017252 0 0.000457208)
(-0.00182834 0 0.000118707)
(-0.00203364 0 9.29435e-05)
(-0.0023253 0 6.92385e-05)
(-0.00249991 0 0.000128052)
(-0.00265931 0 0.000160829)
(-0.00283716 0 0.000165845)
(-0.00299656 0 0.000147682)
(-0.00318545 0 0.000145147)
(-0.00337462 0 0.000124342)
(-0.00352952 0 0.00011701)
(-0.00368956 0 0.000137569)
(-0.00386717 0 0.000140187)
(-0.00403446 0 0.000134449)
(-0.00420137 0 0.000124832)
(-0.00435236 0 0.000117)
(-0.0045143 0 0.000131607)
(-0.00468589 0 0.000130558)
(-0.00485072 0 0.0001276)
(-0.00500701 0 0.000118214)
(-0.0051623 0 0.00012691)
(-0.00532656 0 0.000126609)
(-0.00548398 0 0.000123396)
(-0.00563818 0 0.000120288)
(-0.00579215 0 0.000120958)
(-0.00594459 0 0.000118013)
(-0.00609052 0 0.000111984)
(-0.00622864 0 0.000107013)
(-0.00636839 0 0.000111578)
(-0.00650922 0 0.000109091)
(-0.00664459 0 0.000106402)
(-0.00677801 0 0.000102748)
(-0.0069044 0 9.45322e-05)
(-0.00701938 0 8.87192e-05)
(-0.00713524 0 9.34916e-05)
(-0.00725396 0 9.14183e-05)
(-0.00736739 0 8.69585e-05)
(-0.00747329 0 7.9585e-05)
(-0.00757156 0 7.63625e-05)
(-0.00767014 0 7.80471e-05)
(-0.00776862 0 7.52569e-05)
(-0.00786105 0 6.94987e-05)
(-0.00794558 0 6.43163e-05)
(-0.0080282 0 6.53977e-05)
(-0.00811028 0 6.30205e-05)
(-0.00818893 0 5.9936e-05)
(-0.00826227 0 5.48127e-05)
(-0.00833009 0 5.27428e-05)
(-0.00839607 0 5.12651e-05)
(-0.00846024 0 4.89547e-05)
(-0.00852047 0 4.52703e-05)
(-0.00857532 0 4.1454e-05)
(-0.00862591 0 3.87536e-05)
(-0.0086745 0 3.70869e-05)
(-0.00871981 0 3.38374e-05)
(-0.00876041 0 3.07959e-05)
(-0.00879755 0 2.75893e-05)
(-0.00883101 0 2.50893e-05)
(-0.00886113 0 2.25506e-05)
(-0.00888773 0 1.97843e-05)
(-0.00891088 0 1.69305e-05)
(-0.00893037 0 1.39811e-05)
(-0.00894624 0 1.11972e-05)
(-0.00895876 0 8.54495e-06)
(-0.00896783 0 5.69952e-06)
(-0.0089731 0 2.68831e-06)
(-0.00897466 0 6.76311e-09)
(-0.00897328 0 -1.95749e-06)
(-0.00896908 0 -4.40462e-06)
(-0.00896152 0 -7.233e-06)
(-0.00895017 0 -1.02886e-05)
(-0.00893575 0 -1.23931e-05)
(-0.00891876 0 -1.46054e-05)
(-0.0088986 0 -1.69845e-05)
(-0.00887535 0 -1.93776e-05)
(-0.00884922 0 -2.15513e-05)
(-0.0088204 0 -2.36533e-05)
(-0.00878889 0 -2.5765e-05)
(-0.0087547 0 -2.78714e-05)
(-0.00871782 0 -2.9987e-05)
(-0.00867838 0 -3.18653e-05)
(-0.00863654 0 -3.36755e-05)
(-0.0085923 0 -3.55865e-05)
(-0.00854561 0 -3.75281e-05)
(-0.00849661 0 -3.92032e-05)
(-0.00844546 0 -4.09162e-05)
(-0.0083921 0 -4.26497e-05)
(-0.008337 0 -4.39791e-05)
(-0.00828008 0 -4.55657e-05)
(-0.00822103 0 -4.71906e-05)
(-0.00815992 0 -4.89271e-05)
(-0.00809696 0 -5.00737e-05)
(-0.00803259 0 -5.11433e-05)
(-0.00796672 0 -5.2352e-05)
(-0.00789921 0 -5.36358e-05)
(-0.00782987 0 -5.49996e-05)
(-0.00775936 0 -5.54325e-05)
(-0.00768796 0 -5.63961e-05)
(-0.00761518 0 -5.74905e-05)
(-0.00754105 0 -5.86227e-05)
(-0.00746561 0 -5.96775e-05)
(-0.00738882 0 -6.08444e-05)
(-0.00731086 0 -6.14456e-05)
(-0.00723228 0 -6.18406e-05)
(-0.00715303 0 -6.24343e-05)
(-0.00707288 0 -6.31249e-05)
(-0.00699183 0 -6.38107e-05)
(-0.00690994 0 -6.43681e-05)
(-0.00682736 0 -6.48917e-05)
(-0.00674411 0 -6.54862e-05)
(-0.00666015 0 -6.60539e-05)
(-0.00657561 0 -6.64646e-05)
(-0.00649063 0 -6.68222e-05)
(-0.00640522 0 -6.71317e-05)
(-0.00631942 0 -6.73417e-05)
(-0.00623331 0 -6.74457e-05)
(-0.00614704 0 -6.74999e-05)
(-0.00606052 0 -6.76762e-05)
(-0.00597378 0 -6.78408e-05)
(-0.00588698 0 -6.79582e-05)
(-0.00580016 0 -6.80149e-05)
(-0.00571335 0 -6.8073e-05)
(-0.00562653 0 -6.80912e-05)
(-0.00553977 0 -6.80036e-05)
(-0.00545316 0 -6.78417e-05)
(-0.00536674 0 -6.76399e-05)
(-0.00528056 0 -6.74308e-05)
(-0.00519463 0 -6.72068e-05)
(-0.00510899 0 -6.69438e-05)
(-0.00502373 0 -6.66044e-05)
(-0.00493894 0 -6.61815e-05)
(-0.00485467 0 -6.57682e-05)
(-0.00477089 0 -6.5362e-05)
(-0.00468763 0 -6.49041e-05)
(-0.00460495 0 -6.44024e-05)
(-0.00452289 0 -6.39678e-05)
(-0.00444136 0 -6.35962e-05)
(-0.00436036 0 -6.32012e-05)
(-0.00427994 0 -6.27858e-05)
(-0.00420014 0 -6.2306e-05)
(-0.00412103 0 -6.17456e-05)
(-0.00404268 0 -6.1123e-05)
(-0.00396513 0 -6.04667e-05)
(-0.0038884 0 -5.97957e-05)
(-0.0038125 0 -5.91254e-05)
(-0.00373743 0 -5.84654e-05)
(-0.0036632 0 -5.78054e-05)
(-0.00358982 0 -5.7131e-05)
(-0.00351731 0 -5.64427e-05)
(-0.00344569 0 -5.57497e-05)
(-0.00337496 0 -5.50543e-05)
(-0.00330516 0 -5.43249e-05)
(-0.00323634 0 -5.35477e-05)
(-0.00316854 0 -5.27754e-05)
(-0.00310173 0 -5.19996e-05)
(-0.00303593 0 -5.12118e-05)
(-0.00297113 0 -5.04097e-05)
(-0.00290736 0 -4.95918e-05)
(-0.00284461 0 -4.87593e-05)
(-0.00278289 0 -4.7928e-05)
(-0.0027222 0 -4.71011e-05)
(-0.00266253 0 -4.62892e-05)
(-0.00260387 0 -4.55218e-05)
(-0.00254615 0 -4.48088e-05)
(-0.00248934 0 -4.41106e-05)
(-0.00243344 0 -4.34283e-05)
(-0.00237841 0 -4.27521e-05)
(-0.00232426 0 -4.2088e-05)
(-0.00227097 0 -4.14328e-05)
(-0.00221853 0 -4.07772e-05)
(-0.00216694 0 -4.01121e-05)
(-0.00211622 0 -3.94336e-05)
(-0.00206639 0 -3.87344e-05)
(-0.00201747 0 -3.8007e-05)
(-0.00196949 0 -3.72528e-05)
(-0.00192248 0 -3.64758e-05)
(-0.00187645 0 -3.56959e-05)
(-0.0018314 0 -3.49224e-05)
(-0.00178731 0 -3.41645e-05)
(-0.00174417 0 -3.34179e-05)
(-0.00170197 0 -3.2682e-05)
(-0.00166068 0 -3.19603e-05)
(-0.0016203 0 -3.12619e-05)
(-0.00158078 0 -3.05969e-05)
(-0.00154208 0 -2.99663e-05)
(-0.00150417 0 -2.93689e-05)
(-0.00146702 0 -2.87935e-05)
(-0.0014306 0 -2.82379e-05)
(-0.0013949 0 -2.76911e-05)
(-0.00135991 0 -2.71498e-05)
(-0.00132562 0 -2.66086e-05)
(-0.00129203 0 -2.60639e-05)
(-0.00125915 0 -2.55144e-05)
(-0.00122698 0 -2.49616e-05)
(-0.00119551 0 -2.44105e-05)
(-0.00116473 0 -2.38657e-05)
(-0.00113465 0 -2.33309e-05)
(-0.00110524 0 -2.28067e-05)
(-0.00107649 0 -2.22909e-05)
(-0.0010484 0 -2.17816e-05)
(-0.00102094 0 -2.12788e-05)
(-0.000994113 0 -2.07866e-05)
(-0.000967916 0 -2.03087e-05)
(-0.000942335 0 -1.98419e-05)
(-0.000917362 0 -1.93732e-05)
(-0.000892997 0 -1.88854e-05)
(-0.00086926 0 -1.83733e-05)
(-0.000846168 0 -1.78535e-05)
(-0.00082372 0 -1.73527e-05)
(-0.000801884 0 -1.68848e-05)
(-0.000780619 0 -1.64429e-05)
(-0.000759895 0 -1.60164e-05)
(-0.000739692 0 -1.56127e-05)
(-0.000719981 0 -1.52513e-05)
(-0.000700715 0 -1.49348e-05)
(-0.000681854 0 -1.46362e-05)
(-0.000663394 0 -1.43195e-05)
(-0.000645364 0 -1.39768e-05)
(-0.000627789 0 -1.36278e-05)
(-0.000610666 0 -1.32833e-05)
(-0.000593984 0 -1.29308e-05)
(-0.000577752 0 -1.25583e-05)
(-0.000561987 0 -1.21793e-05)
(-0.000546681 0 -1.18226e-05)
(-0.000531799 0 -1.15005e-05)
(-0.000517304 0 -1.1203e-05)
(-0.000503175 0 -1.09223e-05)
(-0.000489396 0 -1.06639e-05)
(-0.000475939 0 -1.04284e-05)
(-0.000462785 0 -1.01999e-05)
(-0.000449938 0 -9.96237e-06)
(-0.000437408 0 -9.71256e-06)
(-0.000425202 0 -9.45081e-06)
(-0.000413328 0 -9.17468e-06)
(-0.000401801 0 -8.8906e-06)
(-0.000390619 0 -8.61863e-06)
(-0.000379755 0 -8.37502e-06)
(-0.000369173 0 -8.15876e-06)
(-0.000358846 0 -7.96319e-06)
(-0.000348758 0 -7.78917e-06)
(-0.000338891 0 -7.63659e-06)
(-0.000329228 0 -7.49039e-06)
(-0.000319775 0 -7.32751e-06)
(-0.000310554 0 -7.13768e-06)
(-0.000301587 0 -6.93025e-06)
(-0.000292882 0 -6.72167e-06)
(-0.000284429 0 -6.52172e-06)
(-0.000276213 0 -6.33499e-06)
(-0.000268214 0 -6.16832e-06)
(-0.000260403 0 -6.02933e-06)
(-0.000252753 0 -5.91742e-06)
(-0.000245241 0 -5.81849e-06)
(-0.000237867 0 -5.71414e-06)
(-0.000230643 0 -5.59508e-06)
(-0.000223586 0 -5.4655e-06)
(-0.000216698 0 -5.33418e-06)
(-0.000209976 0 -5.20301e-06)
(-0.000203417 0 -5.07021e-06)
(-0.000197018 0 -4.94378e-06)
(-0.000190767 0 -4.84055e-06)
(-0.000184631 0 -4.76639e-06)
(-0.000178587 0 -4.70642e-06)
(-0.000172638 0 -4.63897e-06)
(-0.000166806 0 -4.54682e-06)
(-0.000161121 0 -4.42334e-06)
(-0.000155607 0 -4.27582e-06)
(-0.00015027 0 -4.12566e-06)
(-0.000145094 0 -3.99455e-06)
(-0.000140052 0 -3.89054e-06)
(-0.000135116 0 -3.81075e-06)
(-0.000130272 0 -3.74594e-06)
(-0.000125518 0 -3.67958e-06)
(-0.000120872 0 -3.59463e-06)
(-0.000116362 0 -3.48423e-06)
(-0.000112009 0 -3.35273e-06)
(-0.000107826 0 -3.21077e-06)
(-0.000103805 0 -3.07566e-06)
(-9.9923e-05 0 -2.97002e-06)
(-9.61408e-05 0 -2.90875e-06)
(-9.24181e-05 0 -2.87906e-06)
(-8.8744e-05 0 -2.84741e-06)
(-8.514e-05 0 -2.79023e-06)
(-8.16382e-05 0 -2.70959e-06)
(-7.8248e-05 0 -2.62083e-06)
(-7.49598e-05 0 -2.52676e-06)
(-7.17787e-05 0 -2.43827e-06)
(-6.8687e-05 0 -2.38421e-06)
(-6.56511e-05 0 -2.35579e-06)
(-6.26693e-05 0 -2.31856e-06)
(-5.97647e-05 0 -2.25247e-06)
(-5.69634e-05 0 -2.16094e-06)
(-5.42731e-05 0 -2.0695e-06)
(-5.16784e-05 0 -1.995e-06)
(-4.91443e-05 0 -1.95286e-06)
(-4.66499e-05 0 -1.91186e-06)
(-4.42224e-05 0 -1.88195e-06)
(-4.1848e-05 0 -1.8412e-06)
(-3.9543e-05 0 -1.78875e-06)
(-3.73312e-05 0 -1.70337e-06)
(-3.51886e-05 0 -1.66686e-06)
(-3.30582e-05 0 -1.59192e-06)
(-3.10371e-05 0 -1.54414e-06)
(-2.91065e-05 0 -1.4811e-06)
(-2.72723e-05 0 -1.47881e-06)
(-2.56939e-05 0 -1.3221e-06)
(-2.40187e-05 0 -1.29795e-06)
(-2.21528e-05 0 -8.93827e-07)
(-2.07125e-05 0 -9.82924e-07)
(-1.86085e-05 0 -1.36369e-06)
(-1.70741e-05 0 -1.72624e-06)
(-1.45257e-05 0 -1.88042e-06)
(-1.29759e-05 0 -1.48627e-06)
(-1.08891e-05 0 -1.56501e-06)
(-9.2249e-06 0 -1.42903e-06)
(-7.4354e-06 0 -1.36556e-06)
(-5.86126e-06 0 -1.20358e-06)
(-4.4311e-06 0 -1.10759e-06)
(-3.01676e-06 0 -1.07077e-06)
(-1.68119e-06 0 -1.01215e-06)
(-3.69819e-07 0 -1.0869e-06)
(1.05983e-06 0 -9.78727e-07)
(2.11248e-06 0 -7.98189e-07)
(3.10099e-06 0 -7.49483e-07)
(4.05059e-06 0 -7.1727e-07)
(5.04444e-06 0 -6.97711e-07)
(6.06051e-06 0 -6.11572e-07)
(6.90492e-06 0 -6.47161e-07)
(7.9143e-06 0 -7.41602e-07)
(8.8811e-06 0 -8.33041e-07)
(1.00533e-05 0 -9.01043e-07)
(1.10121e-05 0 -7.21928e-07)
(1.19046e-05 0 -6.99368e-07)
(1.2874e-05 0 -4.85396e-07)
(1.34737e-05 0 -4.19508e-07)
(1.41802e-05 0 -2.27849e-07)
(1.45002e-05 0 -3.17224e-07)
(1.53117e-05 0 -6.13389e-07)
(1.58063e-05 0 -1.32447e-07)
(1.60687e-05 0 -4.7036e-07)
(1.70931e-05 0 -1.75175e-07)
(1.72707e-05 0 -4.38759e-08)
(1.80103e-05 0 -6.17089e-08)
(1.7874e-05 0 -7.22193e-07)
(1.71469e-05 0 -2.65884e-07)
(1.74815e-05 0 -1.61911e-07)
(1.73152e-05 0 2.43591e-06)
(1.69489e-05 0 8.92422e-07)
(2.10607e-05 0 -6.32707e-09)
(1.96329e-05 0 -4.3354e-06)
(3.33652e-05 0 -1.02534e-05)
(3.29515e-05 0 -6.69527e-06)
(3.49458e-05 0 -6.31046e-06)
(3.57068e-05 0 -5.39383e-06)
(3.6031e-05 0 -4.7958e-06)
(3.62241e-05 0 -4.34157e-06)
(3.62451e-05 0 -3.86289e-06)
(3.60031e-05 0 -3.29777e-06)
(3.55505e-05 0 -2.77368e-06)
(3.49656e-05 0 -2.37407e-06)
(3.42676e-05 0 -2.04736e-06)
(3.35035e-05 0 -1.7935e-06)
(3.28088e-05 0 -1.64413e-06)
(3.2269e-05 0 -1.5456e-06)
(3.18215e-05 0 -1.40297e-06)
(3.13553e-05 0 -1.203e-06)
(3.083e-05 0 -1.01507e-06)
(3.0301e-05 0 -8.97854e-07)
(2.98533e-05 0 -8.45087e-07)
(2.9531e-05 0 -8.10578e-07)
(2.92968e-05 0 -7.5996e-07)
(2.90742e-05 0 -6.79844e-07)
(2.8795e-05 0 -5.76637e-07)
(2.84021e-05 0 -4.66732e-07)
(2.78838e-05 0 -3.63358e-07)
(2.72707e-05 0 -2.60194e-07)
(2.66008e-05 0 -1.68964e-07)
(2.59153e-05 0 -9.67177e-08)
(2.52541e-05 0 -4.81416e-08)
(2.46605e-05 0 -3.97497e-08)
(2.41874e-05 0 -7.61614e-08)
(2.39074e-05 0 -1.86337e-07)
(2.39499e-05 0 -3.56444e-07)
(2.43348e-05 0 -5.92965e-07)
(2.49725e-05 0 -8.50327e-07)
(2.58177e-05 0 -1.05307e-06)
(2.68296e-05 0 -1.16732e-06)
(2.79494e-05 0 -1.19709e-06)
(2.91087e-05 0 -1.16393e-06)
(3.02557e-05 0 -1.09178e-06)
(3.13474e-05 0 -9.95237e-07)
(3.23391e-05 0 -8.69679e-07)
(3.31824e-05 0 -7.04392e-07)
(3.38169e-05 0 -4.95717e-07)
(3.42203e-05 0 -2.71329e-07)
(3.44105e-05 0 -8.38105e-08)
(3.44479e-05 0 3.64932e-08)
(3.4437e-05 0 6.61224e-08)
(3.44843e-05 0 9.48978e-09)
(3.46852e-05 0 -1.29273e-07)
(3.51103e-05 0 -3.28354e-07)
(3.57751e-05 0 -5.4763e-07)
(3.66212e-05 0 -6.7822e-07)
(3.7499e-05 0 -6.00809e-07)
(3.81855e-05 0 -2.90562e-07)
(3.8463e-05 0 8.40535e-08)
(3.84019e-05 0 3.05836e-07)
(3.83891e-05 0 1.51975e-07)
(3.87996e-05 0 -3.24814e-07)
(3.95603e-05 0 -5.83747e-07)
(4.01225e-05 0 -2.52647e-07)
(3.98871e-05 0 6.45099e-07)
(3.88059e-05 0 1.37226e-06)
(3.7597e-05 0 1.33119e-06)
(3.69918e-05 0 5.12655e-07)
(3.68984e-05 0 8.32778e-08)
(3.64997e-05 0 6.13849e-07)
(3.53313e-05 0 1.46718e-06)
(3.39653e-05 0 1.42954e-06)
(3.35846e-05 0 2.43743e-07)
(3.41466e-05 0 -3.65776e-07)
(3.43184e-05 0 1.50235e-07)
(3.39141e-05 0 5.40342e-07)
(3.41845e-05 0 -4.33388e-07)
(3.54689e-05 0 -1.38793e-06)
(3.62541e-05 0 -2.59494e-07)
(3.58033e-05 0 8.87655e-07)
(3.52153e-05 0 4.9701e-07)
(3.3839e-05 0 1.30219e-06)
(3.71158e-05 0 1.4869e-06)
(2.09448e-05 0 2.70292e-06)
(-0.0617994 0 -0.00222895)
(-0.0824716 0 -0.000160567)
(-0.0764245 0 -0.000310707)
(-0.0765622 0 -0.000488321)
(-0.0762505 0 -0.000318326)
(-0.0760296 0 -0.000573854)
(-0.0757097 0 -0.00073544)
(-0.0753694 0 -0.000857982)
(-0.0749641 0 -0.00102456)
(-0.0745213 0 -0.00114758)
(-0.0740446 0 -0.00118708)
(-0.0735306 0 -0.00124718)
(-0.0729686 0 -0.00131765)
(-0.0723614 0 -0.00141239)
(-0.0717201 0 -0.00159841)
(-0.0710554 0 -0.00172631)
(-0.0703486 0 -0.00179714)
(-0.0695983 0 -0.00185127)
(-0.0688231 0 -0.0017927)
(-0.0680083 0 -0.00168773)
(-0.0671391 0 -0.00180052)
(-0.0662505 0 -0.00221328)
(-0.0653578 0 -0.00242108)
(-0.0644422 0 -0.00221316)
(-0.0634775 0 -0.00202382)
(-0.0624778 0 -0.00214278)
(-0.0614679 0 -0.00228305)
(-0.0604404 0 -0.00254988)
(-0.0594075 0 -0.00241053)
(-0.0584696 0 -0.00195713)
(-0.057651 0 -0.00209498)
(-0.0567812 0 -0.00258553)
(-0.0556905 0 -0.00285652)
(-0.054393 0 -0.00255171)
(-0.0531328 0 -0.00229531)
(-0.0520978 0 -0.00218136)
(-0.0511237 0 -0.00281954)
(-0.0501248 0 -0.00294273)
(-0.0489552 0 -0.00241829)
(-0.0477084 0 -0.00247475)
(-0.0466257 0 -0.00210228)
(-0.0456431 0 -0.00227705)
(-0.0445264 0 -0.00306304)
(-0.0433178 0 -0.00306064)
(-0.0420965 0 -0.0024344)
(-0.0410092 0 -0.00230089)
(-0.0399657 0 -0.0027506)
(-0.0389542 0 -0.00276222)
(-0.0379386 0 -0.00243596)
(-0.0369054 0 -0.00239411)
(-0.0358416 0 -0.0025861)
(-0.0347795 0 -0.00275835)
(-0.0337255 0 -0.00269183)
(-0.0326732 0 -0.00257796)
(-0.0316193 0 -0.00245574)
(-0.0305815 0 -0.00242588)
(-0.0295425 0 -0.00252009)
(-0.0285343 0 -0.002201)
(-0.0276327 0 -0.00190658)
(-0.0267805 0 -0.00193596)
(-0.0258604 0 -0.00223378)
(-0.024921 0 -0.00227454)
(-0.0241215 0 -0.00167508)
(-0.0234253 0 -0.00161665)
(-0.0227107 0 -0.00171329)
(-0.0219041 0 -0.00204726)
(-0.0210677 0 -0.00212061)
(-0.02024 0 -0.0018873)
(-0.0193947 0 -0.0019099)
(-0.018626 0 -0.00188528)
(-0.0179489 0 -0.00174934)
(-0.0172102 0 -0.00191712)
(-0.0163864 0 -0.00204237)
(-0.0155957 0 -0.00256495)
(-0.0148303 0 -0.00255575)
(-0.0140719 0 -0.00313435)
(-0.0135557 0 -0.00381627)
(-0.0131098 0 -0.00389833)
(-0.0120268 0 -0.00378934)
(-0.0107244 0 -0.00303795)
(-0.00912204 0 -0.00193876)
(-0.00768546 0 -0.000825479)
(-0.00579969 0 1.69553e-05)
(-0.00555778 0 0.000213166)
(-0.00477662 0 0.00016169)
(-0.00471974 0 -0.000102733)
(-0.00463886 0 -0.000499639)
(-0.00466197 0 -0.000277738)
(-0.00478208 0 -0.000284569)
(-0.00473493 0 -0.000125592)
(-0.00463632 0 -0.000189979)
(-0.0044629 0 -0.000207075)
(-0.00439514 0 -0.000300043)
(-0.00430502 0 -0.000288166)
(-0.0042407 0 -0.000362268)
(-0.00416588 0 -0.000444232)
(-0.00408551 0 -0.000738144)
(-0.00403158 0 -0.000936588)
(-0.00395608 0 -0.00117529)
(-0.00403604 0 -0.00107887)
(-0.00353083 0 -0.00063994)
(-0.00326401 0 -0.00044086)
(-0.00229982 0 -0.000121026)
(-0.00225913 0 0.000132152)
(-0.00193686 0 0.000478102)
(-0.00198305 0 0.000490917)
(-0.00194047 0 0.000139271)
(-0.00201137 0 8.24579e-05)
(-0.00212649 0 7.39159e-05)
(-0.00235272 0 0.000139279)
(-0.00244775 0 0.000149464)
(-0.00249087 0 0.000183855)
(-0.00257506 0 0.000117349)
(-0.00261984 0 4.67853e-06)
(-0.00272152 0 -0.000165884)
(-0.00282369 0 -0.000366975)
(-0.00290997 0 -0.000651133)
(-0.00312313 0 -0.00055859)
(-0.00289668 0 -0.000196229)
(-0.00286728 0 -0.000141557)
(-0.00209923 0 0.000131559)
(-0.00223081 0 0.000358484)
(-0.00209007 0 0.000711439)
(-0.00228191 0 0.000687154)
(-0.0023564 0 0.000383177)
(-0.00257852 0 0.000382459)
(-0.0028601 0 0.000344152)
(-0.00303902 0 0.000404406)
(-0.00318718 0 0.000450323)
(-0.00336248 0 0.000426576)
(-0.0035174 0 0.000370207)
(-0.00368937 0 0.000401741)
(-0.0038676 0 0.000396646)
(-0.00403401 0 0.000392424)
(-0.00419549 0 0.000376779)
(-0.00435658 0 0.000369669)
(-0.00452222 0 0.000402358)
(-0.00468737 0 0.000393066)
(-0.0048488 0 0.000384567)
(-0.00501056 0 0.000363411)
(-0.00517286 0 0.000382533)
(-0.00533409 0 0.000376454)
(-0.0054869 0 0.000366599)
(-0.0056421 0 0.000363086)
(-0.00579829 0 0.000362413)
(-0.0059469 0 0.000349943)
(-0.00609043 0 0.000335517)
(-0.00623338 0 0.000326223)
(-0.0063765 0 0.000333413)
(-0.00651451 0 0.000322771)
(-0.00664693 0 0.000315146)
(-0.00677722 0 0.000307034)
(-0.00690343 0 0.000284902)
(-0.00702412 0 0.000270203)
(-0.00714212 0 0.000278187)
(-0.00725757 0 0.000271863)
(-0.00736917 0 0.000258665)
(-0.00747527 0 0.000239882)
(-0.00757701 0 0.000231265)
(-0.00767616 0 0.000232983)
(-0.00777286 0 0.000224391)
(-0.00786569 0 0.000208914)
(-0.00795338 0 0.000195689)
(-0.00803682 0 0.000194956)
(-0.00811741 0 0.000188029)
(-0.00819712 0 0.000180831)
(-0.00827145 0 0.000165132)
(-0.00833949 0 0.000157737)
(-0.00840471 0 0.000152578)
(-0.00846963 0 0.000147768)
(-0.00853032 0 0.000134988)
(-0.00858415 0 0.000124041)
(-0.0086348 0 0.000116261)
(-0.00868453 0 0.000112033)
(-0.00872989 0 0.000100181)
(-0.00876887 0 9.1478e-05)
(-0.00880602 0 8.35171e-05)
(-0.00884028 0 7.47757e-05)
(-0.00887005 0 6.65181e-05)
(-0.00889554 0 5.82614e-05)
(-0.00891813 0 5.00929e-05)
(-0.00893758 0 4.15248e-05)
(-0.00895331 0 3.33944e-05)
(-0.0089656 0 2.55872e-05)
(-0.00897453 0 1.68966e-05)
(-0.0089798 0 8.0261e-06)
(-0.00898145 0 1.82722e-08)
(-0.00897969 0 -6.62717e-06)
(-0.00897472 0 -1.41557e-05)
(-0.00896673 0 -2.21891e-05)
(-0.0089555 0 -3.05791e-05)
(-0.00894166 0 -3.63094e-05)
(-0.00892494 0 -4.36022e-05)
(-0.00890461 0 -5.11269e-05)
(-0.00888121 0 -5.81232e-05)
(-0.00885488 0 -6.46121e-05)
(-0.00882595 0 -7.07238e-05)
(-0.00879441 0 -7.72216e-05)
(-0.00876007 0 -8.34549e-05)
(-0.00872318 0 -8.95978e-05)
(-0.00868372 0 -9.55189e-05)
(-0.00864156 0 -0.000101243)
(-0.00859698 0 -0.000106847)
(-0.00855016 0 -0.000112487)
(-0.00850101 0 -0.00011767)
(-0.00844952 0 -0.000122764)
(-0.00839595 0 -0.00012756)
(-0.00834116 0 -0.00013096)
(-0.00828434 0 -0.000136388)
(-0.0082251 0 -0.000140913)
(-0.0081643 0 -0.000145614)
(-0.00810173 0 -0.000149316)
(-0.00803736 0 -0.000152895)
(-0.00797127 0 -0.000156671)
(-0.00790349 0 -0.00016053)
(-0.00783417 0 -0.000164405)
(-0.00776347 0 -0.000166505)
(-0.00769134 0 -0.000169514)
(-0.00761802 0 -0.000172467)
(-0.00754363 0 -0.000175518)
(-0.00746811 0 -0.000178393)
(-0.00739151 0 -0.000181392)
(-0.00731389 0 -0.000183377)
(-0.0072352 0 -0.000184998)
(-0.00715554 0 -0.000186909)
(-0.00707507 0 -0.000188973)
(-0.0069938 0 -0.000191102)
(-0.00691171 0 -0.000192935)
(-0.00682886 0 -0.000194551)
(-0.0067454 0 -0.000196169)
(-0.00666134 0 -0.00019765)
(-0.00657674 0 -0.000198755)
(-0.00649167 0 -0.000199693)
(-0.00640622 0 -0.00020057)
(-0.00632036 0 -0.000201331)
(-0.00623409 0 -0.00020192)
(-0.00614752 0 -0.000202404)
(-0.00606065 0 -0.000203023)
(-0.00597368 0 -0.000203316)
(-0.00588688 0 -0.000203297)
(-0.0058001 0 -0.000203402)
(-0.00571323 0 -0.000203443)
(-0.00562643 0 -0.000203422)
(-0.00553969 0 -0.000203233)
(-0.00545305 0 -0.000202884)
(-0.00536657 0 -0.000202393)
(-0.00528028 0 -0.000201841)
(-0.00519424 0 -0.000201171)
(-0.00510855 0 -0.000200334)
(-0.00502323 0 -0.000199334)
(-0.00493828 0 -0.000198189)
(-0.00485374 0 -0.000197014)
(-0.00476966 0 -0.000195852)
(-0.00468605 0 -0.000194591)
(-0.00460298 0 -0.000193198)
(-0.00452053 0 -0.00019187)
(-0.00443875 0 -0.000190609)
(-0.00435768 0 -0.000189255)
(-0.00427731 0 -0.000187841)
(-0.00419764 0 -0.000186291)
(-0.00411867 0 -0.000184588)
(-0.00404043 0 -0.000182773)
(-0.00396293 0 -0.000180896)
(-0.00388618 0 -0.000178972)
(-0.00381023 0 -0.000177013)
(-0.00373511 0 -0.000175044)
(-0.00366084 0 -0.000173056)
(-0.00358745 0 -0.000171027)
(-0.00351494 0 -0.000168966)
(-0.00344334 0 -0.000166868)
(-0.00337267 0 -0.000164728)
(-0.00330296 0 -0.000162492)
(-0.00323425 0 -0.000160152)
(-0.00316654 0 -0.000157808)
(-0.00309983 0 -0.000155471)
(-0.00303411 0 -0.000153122)
(-0.00296938 0 -0.000150747)
(-0.00290562 0 -0.000148352)
(-0.00284283 0 -0.000145938)
(-0.002781 0 -0.000143525)
(-0.00272015 0 -0.000141121)
(-0.0026603 0 -0.000138739)
(-0.00260143 0 -0.000136439)
(-0.00254355 0 -0.000134259)
(-0.00248661 0 -0.000132122)
(-0.00243062 0 -0.000130033)
(-0.00237555 0 -0.000127967)
(-0.00232139 0 -0.00012593)
(-0.00226814 0 -0.000123913)
(-0.00221579 0 -0.000121895)
(-0.00216434 0 -0.000119853)
(-0.00211381 0 -0.000117777)
(-0.00206418 0 -0.000115654)
(-0.00201547 0 -0.000113472)
(-0.00196768 0 -0.000111243)
(-0.00192081 0 -0.000108973)
(-0.00187486 0 -0.0001067)
(-0.00182984 0 -0.00010444)
(-0.00178575 0 -0.000102211)
(-0.00174257 0 -0.000100013)
(-0.00170029 0 -9.78502e-05)
(-0.0016589 0 -9.57341e-05)
(-0.00161837 0 -9.3683e-05)
(-0.00157868 0 -9.17163e-05)
(-0.00153983 0 -8.98321e-05)
(-0.00150177 0 -8.80245e-05)
(-0.0014645 0 -8.62708e-05)
(-0.001428 0 -8.45654e-05)
(-0.00139226 0 -8.28851e-05)
(-0.00135726 0 -8.12226e-05)
(-0.001323 0 -7.95681e-05)
(-0.00128947 0 -7.79149e-05)
(-0.00125665 0 -7.62608e-05)
(-0.00122455 0 -7.46076e-05)
(-0.00119314 0 -7.29625e-05)
(-0.00116243 0 -7.13342e-05)
(-0.0011324 0 -6.97327e-05)
(-0.00110305 0 -6.81642e-05)
(-0.00107437 0 -6.6628e-05)
(-0.00104633 0 -6.5117e-05)
(-0.00101894 0 -6.36205e-05)
(-0.000992184 0 -6.21341e-05)
(-0.000966073 0 -6.06622e-05)
(-0.000940609 0 -5.92108e-05)
(-0.000915784 0 -5.77729e-05)
(-0.000891581 0 -5.63235e-05)
(-0.000867983 0 -5.48419e-05)
(-0.000844981 0 -5.33428e-05)
(-0.000822572 0 -5.18763e-05)
(-0.000800745 0 -5.04908e-05)
(-0.000779471 0 -4.91936e-05)
(-0.000758719 0 -4.79593e-05)
(-0.00073847 0 -4.67774e-05)
(-0.000718719 0 -4.56718e-05)
(-0.000699458 0 -4.4659e-05)
(-0.000680663 0 -4.36991e-05)
(-0.000662316 0 -4.27153e-05)
(-0.000644418 0 -4.16715e-05)
(-0.000626983 0 -4.06025e-05)
(-0.000610011 0 -3.955e-05)
(-0.000593479 0 -3.85072e-05)
(-0.000577367 0 -3.74453e-05)
(-0.000561669 0 -3.63753e-05)
(-0.000546385 0 -3.53504e-05)
(-0.0005315 0 -3.44046e-05)
(-0.000516995 0 -3.35224e-05)
(-0.00050286 0 -3.26822e-05)
(-0.000489088 0 -3.18896e-05)
(-0.00047567 0 -3.11457e-05)
(-0.000462592 0 -3.04192e-05)
(-0.000449847 0 -2.96794e-05)
(-0.00043743 0 -2.89248e-05)
(-0.000425327 0 -2.81589e-05)
(-0.000413529 0 -2.73722e-05)
(-0.000402034 0 -2.65737e-05)
(-0.000390838 0 -2.58086e-05)
(-0.000379924 0 -2.5119e-05)
(-0.000369269 0 -2.45028e-05)
(-0.000358863 0 -2.39327e-05)
(-0.000348708 0 -2.33949e-05)
(-0.000338806 0 -2.28871e-05)
(-0.000329154 0 -2.23889e-05)
(-0.000319746 0 -2.18634e-05)
(-0.000310581 0 -2.12913e-05)
(-0.000301657 0 -2.06899e-05)
(-0.000292966 0 -2.00936e-05)
(-0.000284493 0 -1.9528e-05)
(-0.000276225 0 -1.90064e-05)
(-0.000268151 0 -1.85396e-05)
(-0.000260262 0 -1.81345e-05)
(-0.000252549 0 -1.77818e-05)
(-0.000245003 0 -1.74511e-05)
(-0.000237622 0 -1.71067e-05)
(-0.000230408 0 -1.67311e-05)
(-0.000223366 0 -1.63355e-05)
(-0.000216493 0 -1.59431e-05)
(-0.000209775 0 -1.5563e-05)
(-0.000203197 0 -1.51898e-05)
(-0.000196758 0 -1.48341e-05)
(-0.000190462 0 -1.45272e-05)
(-0.000184307 0 -1.42774e-05)
(-0.00017829 0 -1.40449e-05)
(-0.000172416 0 -1.37798e-05)
(-0.000166695 0 -1.34582e-05)
(-0.000161124 0 -1.30861e-05)
(-0.000155692 0 -1.26884e-05)
(-0.000150388 0 -1.23056e-05)
(-0.000145198 0 -1.19741e-05)
(-0.000140113 0 -1.17004e-05)
(-0.000135133 0 -1.14659e-05)
(-0.000130269 0 -1.12425e-05)
(-0.000125536 0 -1.09958e-05)
(-0.000120946 0 -1.06979e-05)
(-0.000116503 0 -1.03485e-05)
(-0.000112196 0 -9.97056e-06)
(-0.000108015 0 -9.59686e-06)
(-0.000103943 0 -9.263e-06)
(-9.99699e-05 0 -8.99882e-06)
(-9.60927e-05 0 -8.81381e-06)
(-9.23154e-05 0 -8.67675e-06)
(-8.86434e-05 0 -8.52373e-06)
(-8.50807e-05 0 -8.31222e-06)
(-8.16263e-05 0 -8.05851e-06)
(-7.82611e-05 0 -7.81472e-06)
(-7.49597e-05 0 -7.58456e-06)
(-7.17304e-05 0 -7.3669e-06)
(-6.85888e-05 0 -7.1969e-06)
(-6.55457e-05 0 -7.05436e-06)
(-6.26097e-05 0 -6.88753e-06)
(-5.97612e-05 0 -6.67111e-06)
(-5.69943e-05 0 -6.4272e-06)
(-5.42917e-05 0 -6.19509e-06)
(-5.16611e-05 0 -6.02568e-06)
(-4.90847e-05 0 -5.9097e-06)
(-4.65714e-05 0 -5.78759e-06)
(-4.41465e-05 0 -5.62171e-06)
(-4.17967e-05 0 -5.47845e-06)
(-3.94901e-05 0 -5.26615e-06)
(-3.72998e-05 0 -5.10794e-06)
(-3.51504e-05 0 -5.00325e-06)
(-3.3096e-05 0 -4.91529e-06)
(-3.12176e-05 0 -4.62888e-06)
(-2.92945e-05 0 -4.42526e-06)
(-2.72043e-05 0 -3.86533e-06)
(-2.54554e-05 0 -3.77036e-06)
(-2.32504e-05 0 -4.20748e-06)
(-2.15474e-05 0 -4.27082e-06)
(-1.88681e-05 0 -4.49467e-06)
(-1.72022e-05 0 -4.35072e-06)
(-1.51481e-05 0 -4.67552e-06)
(-1.37907e-05 0 -4.60487e-06)
(-1.20985e-05 0 -4.20302e-06)
(-1.04943e-05 0 -4.26208e-06)
(-8.91032e-06 0 -4.02187e-06)
(-7.35028e-06 0 -3.8599e-06)
(-5.84543e-06 0 -3.50858e-06)
(-4.42811e-06 0 -3.31759e-06)
(-3.03388e-06 0 -3.22814e-06)
(-1.72719e-06 0 -3.10778e-06)
(-4.57035e-07 0 -3.18906e-06)
(8.34006e-07 0 -2.90272e-06)
(1.94383e-06 0 -2.35921e-06)
(3.01994e-06 0 -2.29372e-06)
(4.13531e-06 0 -2.26179e-06)
(5.16588e-06 0 -2.43122e-06)
(6.35212e-06 0 -2.25891e-06)
(7.28017e-06 0 -2.19445e-06)
(8.34547e-06 0 -2.37836e-06)
(9.23578e-06 0 -2.46501e-06)
(1.02513e-05 0 -2.44758e-06)
(1.09342e-05 0 -2.043e-06)
(1.17495e-05 0 -2.2722e-06)
(1.26936e-05 0 -1.81878e-06)
(1.32494e-05 0 -1.66575e-06)
(1.39295e-05 0 -1.22213e-06)
(1.46742e-05 0 -1.42178e-06)
(1.54852e-05 0 -1.28434e-06)
(1.59621e-05 0 -9.33099e-07)
(1.69644e-05 0 -1.28554e-06)
(1.69023e-05 0 -1.64024e-06)
(1.64204e-05 0 -1.02908e-06)
(1.68165e-05 0 -8.37271e-07)
(1.70103e-05 0 2.47967e-06)
(1.67842e-05 0 1.04184e-06)
(2.14512e-05 0 6.79746e-07)
(2.01844e-05 0 -8.3549e-07)
(3.08973e-05 0 -3.72192e-06)
(3.08048e-05 0 -1.89162e-06)
(3.51429e-05 0 -1.09108e-05)