/*--------------------------------*- C++ -*----------------------------------*\
| =========                 |                                                 |
| \\      /  F ield         | OpenFOAM: The Open Source CFD Toolbox           |
|  \\    /   O peration     | Version:  v2006                                 |
|   \\  /    A nd           | Website:  www.openfoam.com                      |
|    \\/     M anipulation  |                                                 |
\*---------------------------------------------------------------------------*/
FoamFile
{
    version     2.0;
    format      ascii;
    class       surfaceScalarField;
    location    "3.2";
    object      alphaPhi0.water;
}
// * * * * * * * * * * * * * * * * * * * * * * * * * * * * * * * * * * * * * //

dimensions      [0 3 -1 0 0 0 0];
oriented        oriented;


internalField   nonuniform List<scalar> 
65390
(
-6.14344e-05
-1.47306e-06
-5.97526e-05
-1.68251e-06
-5.80288e-05
-1.72357e-06
-5.62611e-05
-1.76756e-06
-5.44547e-05
-1.8054e-06
-5.26853e-05
-1.76851e-06
-5.09145e-05
-1.77051e-06
-4.91355e-05
-1.77864e-06
-4.72692e-05
-1.8657e-06
-4.5328e-05
-1.93963e-06
-4.33504e-05
-1.97475e-06
-4.13718e-05
-1.96746e-06
-3.93959e-05
-1.96621e-06
-3.74335e-05
-1.96266e-06
-3.54544e-05
-1.98013e-06
-3.3416e-05
-2.05723e-06
-3.13242e-05
-2.09909e-06
-2.92461e-05
-2.07941e-06
-2.71662e-05
-2.08112e-06
-2.51178e-05
-2.04949e-06
-2.31364e-05
-1.98099e-06
-2.12536e-05
-1.88395e-06
-1.94225e-05
-1.83248e-06
-1.74882e-05
-1.93779e-06
-1.537e-05
-2.12168e-06
-1.32069e-05
-2.16462e-06
-1.12317e-05
-1.97523e-06
-9.58907e-06
-1.64039e-06
-7.97074e-06
-1.62042e-06
-6.14246e-06
-1.82929e-06
-4.18286e-06
-1.96045e-06
-2.34408e-06
-1.83919e-06
-5.73948e-07
-1.77045e-06
1.2893e-06
-1.86344e-06
3.20879e-06
-1.91979e-06
4.92046e-06
-1.71435e-06
6.4559e-06
-1.53282e-06
7.93711e-06
-1.47841e-06
9.55925e-06
-1.622e-06
1.13842e-05
-1.82474e-06
1.3147e-05
-1.76538e-06
1.46589e-05
-1.51741e-06
1.60202e-05
-1.35768e-06
1.7489e-05
-1.4604e-06
1.9207e-05
-1.71754e-06
2.10203e-05
-1.81382e-06
2.26187e-05
-1.5993e-06
2.3891e-05
-1.28059e-06
2.5123e-05
-1.22592e-06
2.64775e-05
-1.34654e-06
2.7913e-05
-1.43529e-06
2.94254e-05
-1.51259e-06
3.09491e-05
-1.52867e-06
3.23684e-05
-1.42198e-06
3.36195e-05
-1.2479e-06
3.47801e-05
-1.15514e-06
3.60128e-05
-1.2328e-06
3.73378e-05
-1.3254e-06
3.86032e-05
-1.26629e-06
3.97056e-05
-1.10289e-06
4.07621e-05
-1.0563e-06
4.18692e-05
-1.1065e-06
4.30831e-05
-1.21339e-06
4.41198e-05
-1.03669e-06
4.48269e-05
-7.07108e-07
4.53425e-05
-5.23886e-07
4.58402e-05
-5.00029e-07
4.64108e-05
-5.62093e-07
4.68035e-05
-3.92237e-07
4.69761e-05
-1.7271e-07
4.69442e-05
3.15235e-08
4.67552e-05
1.88955e-07
4.63458e-05
4.08864e-07
4.56964e-05
6.49029e-07
4.42691e-05
1.41896e-06
4.19193e-05
2.34638e-06
3.80962e-05
3.82346e-06
3.2418e-05
5.68245e-06
2.74297e-05
4.98796e-06
2.50402e-05
2.38914e-06
2.29698e-05
2.0699e-06
2.24134e-05
5.5267e-07
2.1334e-05
1.07634e-06
2.07855e-05
5.4779e-07
2.12588e-05
-4.72094e-07
2.1186e-05
7.38992e-08
2.10295e-05
1.57924e-07
2.12408e-05
-2.10609e-07
2.16358e-05
-3.95461e-07
2.18703e-05
-2.34639e-07
2.20933e-05
-2.24188e-07
2.22734e-05
-1.83958e-07
2.22563e-05
1.60739e-08
2.21682e-05
9.21375e-08
2.18957e-05
2.7226e-07
2.14755e-05
4.19955e-07
2.05051e-05
9.68077e-07
1.9247e-05
1.25714e-06
1.68122e-05
2.43636e-06
1.36469e-05
3.16635e-06
1.11507e-05
2.49597e-06
1.01251e-05
1.02506e-06
1.02879e-05
-1.62948e-07
1.036e-05
-7.24914e-08
1.09007e-05
-5.40128e-07
1.15982e-05
-6.96789e-07
1.19792e-05
-3.81055e-07
1.20815e-05
-1.02131e-07
1.21973e-05
-1.13554e-07
1.24235e-05
-2.26122e-07
1.26074e-05
-1.8396e-07
1.28266e-05
-2.19102e-07
1.29928e-05
-1.67512e-07
1.30875e-05
-9.22672e-08
1.29793e-05
1.09777e-07
1.2741e-05
2.38609e-07
1.19401e-05
8.01132e-07
1.09535e-05
9.86471e-07
1.03965e-05
5.56159e-07
1.03891e-05
9.04921e-09
1.06784e-05
-2.89279e-07
1.084e-05
-1.61652e-07
1.11675e-05
-3.27521e-07
1.15432e-05
-3.75648e-07
1.17589e-05
-2.17345e-07
1.19453e-05
-1.85264e-07
1.21302e-05
-1.8493e-07
1.22909e-05
-1.60911e-07
1.24568e-05
-1.67129e-07
1.26204e-05
-1.63031e-07
1.27599e-05
-1.39568e-07
1.28888e-05
-1.29213e-07
1.30006e-05
-1.12088e-07
1.30969e-05
-9.70935e-08
1.31838e-05
-8.70377e-08
1.32673e-05
-8.34661e-08
1.33484e-05
-8.12796e-08
1.34181e-05
-6.9945e-08
1.34782e-05
-6.02686e-08
1.35348e-05
-5.67414e-08
1.35813e-05
-4.67351e-08
1.36153e-05
-3.40857e-08
1.36393e-05
-2.43809e-08
1.36589e-05
-1.98417e-08
1.36662e-05
-7.4746e-09
1.36621e-05
3.8507e-09
1.36483e-05
1.3236e-08
1.36284e-05
1.99505e-08
1.36013e-05
2.66766e-08
1.35628e-05
3.82181e-08
1.35144e-05
4.8068e-08
1.34545e-05
5.93944e-08
1.33888e-05
6.57715e-08
1.33225e-05
6.61412e-08
1.32501e-05
7.21857e-08
1.31637e-05
8.61103e-08
1.3067e-05
9.59785e-08
1.2969e-05
9.81959e-08
1.28704e-05
9.84327e-08
1.27645e-05
1.05755e-07
1.26471e-05
1.17052e-07
1.25252e-05
1.21908e-07
1.24049e-05
1.20187e-07
1.22812e-05
1.23615e-07
1.21457e-05
1.34853e-07
1.20061e-05
1.39879e-07
1.1868e-05
1.37997e-07
1.17287e-05
1.39158e-07
1.1582e-05
1.46103e-07
1.14275e-05
1.54726e-07
1.12725e-05
1.54931e-07
1.11225e-05
1.50084e-07
1.09692e-05
1.52924e-07
1.08061e-05
1.62989e-07
1.06409e-05
1.65438e-07
1.04781e-05
1.62783e-07
1.03164e-05
1.61643e-07
1.01525e-05
1.63968e-07
9.98452e-06
1.67577e-07
9.81574e-06
1.69017e-07
9.64534e-06
1.70606e-07
9.47841e-06
1.66965e-07
9.31178e-06
1.66628e-07
9.14139e-06
1.70392e-07
8.96941e-06
1.721e-07
8.80078e-06
1.68778e-07
8.63783e-06
1.62917e-07
8.47156e-06
1.66179e-07
8.30145e-06
1.70331e-07
8.1335e-06
1.68082e-07
7.97046e-06
1.63066e-07
7.80772e-06
1.62718e-07
7.64286e-06
1.64783e-07
7.47975e-06
1.63087e-07
7.31927e-06
1.60605e-07
7.16258e-06
1.56941e-07
7.00468e-06
1.57897e-07
6.84681e-06
1.57787e-07
6.69336e-06
1.53486e-07
6.54575e-06
1.47647e-07
6.39694e-06
1.48784e-07
6.2462e-06
1.50793e-07
6.09499e-06
1.51232e-07
5.94972e-06
1.45279e-07
5.80916e-06
1.40529e-07
5.67283e-06
1.36493e-07
5.53604e-06
1.36724e-07
5.39488e-06
1.41068e-07
5.25728e-06
1.37567e-07
5.12672e-06
1.30508e-07
4.99925e-06
1.27427e-07
4.86763e-06
1.31518e-07
4.73874e-06
1.28856e-07
4.61262e-06
1.26056e-07
4.49175e-06
1.2081e-07
4.37595e-06
1.15733e-07
4.25464e-06
1.21149e-07
4.13515e-06
1.1946e-07
4.01756e-06
1.17555e-07
3.90044e-06
1.17088e-07
3.79263e-06
1.07726e-07
3.68758e-06
1.04969e-07
3.57898e-06
1.08432e-07
3.46921e-06
1.09786e-07
3.36351e-06
1.05631e-07
3.25993e-06
1.03524e-07
3.15667e-06
1.03188e-07
3.05783e-06
9.87609e-08
2.96349e-06
9.42219e-08
2.86589e-06
9.76003e-08
2.76769e-06
9.81815e-08
2.67268e-06
9.49459e-08
2.57902e-06
9.35873e-08
2.48978e-06
8.92062e-08
2.40436e-06
8.5383e-08
2.31381e-06
9.04363e-08
2.22366e-06
9.01751e-08
2.13626e-06
8.73626e-08
2.05247e-06
8.37548e-08
1.96734e-06
8.50834e-08
1.88373e-06
8.35722e-08
1.8018e-06
8.19024e-08
1.7215e-06
8.02657e-08
1.64122e-06
8.02548e-08
1.56246e-06
7.87265e-08
1.48579e-06
7.66234e-08
1.40482e-06
8.09471e-08
1.3275e-06
7.72926e-08
1.2547e-06
7.27602e-08
1.17993e-06
7.47349e-08
1.10536e-06
7.45342e-08
1.0319e-06
7.34194e-08
9.58798e-07
7.30699e-08
8.87477e-07
7.12814e-08
8.15036e-07
7.24107e-08
7.43823e-07
7.11886e-08
6.76098e-07
6.76864e-08
6.08437e-07
6.76126e-08
5.38798e-07
6.96038e-08
4.70512e-07
6.82548e-08
4.0435e-07
6.61315e-08
3.4074e-07
6.35731e-08
2.75118e-07
6.55846e-08
2.09574e-07
6.55086e-08
1.45117e-07
6.44242e-08
8.13609e-08
6.37225e-08
1.84733e-08
6.28554e-08
-4.13323e-08
5.97747e-08
-1.00019e-07
5.86541e-08
-1.59459e-07
5.94085e-08
-2.19238e-07
5.97481e-08
-2.78602e-07
5.9333e-08
-3.36939e-07
5.83054e-08
-3.94117e-07
5.71493e-08
-4.50334e-07
5.61896e-08
-5.0513e-07
5.47673e-08
-5.59918e-07
5.47589e-08
-6.14029e-07
5.40817e-08
-6.67321e-07
5.32623e-08
-7.19767e-07
5.24135e-08
-7.72462e-07
5.26709e-08
-8.24636e-07
5.21346e-08
-8.74986e-07
5.03191e-08
-9.24119e-07
4.91035e-08
-9.72179e-07
4.80276e-08
-1.01971e-06
4.7514e-08
-1.06736e-06
4.76198e-08
-1.11448e-06
4.70924e-08
-1.16055e-06
4.60356e-08
-1.20574e-06
4.51677e-08
-1.24929e-06
4.35272e-08
-1.29197e-06
4.26515e-08
-1.33484e-06
4.28451e-08
-1.37707e-06
4.2216e-08
-1.41838e-06
4.12803e-08
-1.45898e-06
4.05825e-08
-1.4986e-06
3.95978e-08
-1.53741e-06
3.87881e-08
-1.57572e-06
3.82976e-08
-1.61323e-06
3.74897e-08
-1.64997e-06
3.67202e-08
-1.6859e-06
3.59106e-08
-1.72086e-06
3.49458e-08
-1.75521e-06
3.43374e-08
-1.78876e-06
3.35353e-08
-1.82141e-06
3.26368e-08
-1.85297e-06
3.15343e-08
-1.88353e-06
3.05491e-08
-1.91371e-06
3.01619e-08
-1.94292e-06
2.91965e-08
-1.97116e-06
2.82331e-08
-1.99837e-06
2.71981e-08
-2.02465e-06
2.62665e-08
-2.05009e-06
2.54217e-08
-2.07458e-06
2.44759e-08
-2.09808e-06
2.34921e-08
-2.12057e-06
2.24841e-08
-2.14213e-06
2.15396e-08
-2.1628e-06
2.06602e-08
-2.18246e-06
1.9651e-08
-2.20108e-06
1.86173e-08
-2.2186e-06
1.75069e-08
-2.23505e-06
1.64372e-08
-2.25073e-06
1.56757e-08
-2.26537e-06
1.46305e-08
-2.27885e-06
1.34777e-08
-2.29111e-06
1.2244e-08
-2.30258e-06
1.14557e-08
-2.31306e-06
1.04732e-08
-2.32249e-06
9.42404e-09
-2.33089e-06
8.39545e-09
-2.33822e-06
7.31868e-09
-2.34444e-06
6.20788e-09
-2.34961e-06
5.15845e-09
-2.35373e-06
4.11701e-09
-2.35684e-06
3.10514e-09
-2.35896e-06
2.11186e-09
-2.36009e-06
1.11757e-09
-2.36022e-06
1.21376e-10
-2.35934e-06
-8.90171e-10
-2.35754e-06
-1.8103e-09
-2.35491e-06
-2.6406e-09
-2.35139e-06
-3.52082e-09
-2.34698e-06
-4.42175e-09
-2.34166e-06
-5.32674e-09
-2.33543e-06
-6.23706e-09
-2.3284e-06
-7.0393e-09
-2.3206e-06
-7.81134e-09
-2.31202e-06
-8.58463e-09
-2.30262e-06
-9.40385e-09
-2.29241e-06
-1.02191e-08
-2.28158e-06
-1.08304e-08
-2.27011e-06
-1.14803e-08
-2.25798e-06
-1.21363e-08
-2.2452e-06
-1.2788e-08
-2.2318e-06
-1.34005e-08
-2.21788e-06
-1.39338e-08
-2.2034e-06
-1.44765e-08
-2.18839e-06
-1.50187e-08
-2.17281e-06
-1.55916e-08
-2.15679e-06
-1.60249e-08
-2.14033e-06
-1.64643e-08
-2.12344e-06
-1.68953e-08
-2.10616e-06
-1.72873e-08
-2.0885e-06
-1.76642e-08
-2.07047e-06
-1.80322e-08
-2.05217e-06
-1.82992e-08
-2.03357e-06
-1.86114e-08
-2.01468e-06
-1.8891e-08
-1.99552e-06
-1.91672e-08
-1.97604e-06
-1.94777e-08
-1.95633e-06
-1.97204e-08
-1.93641e-06
-1.99275e-08
-1.9163e-06
-2.01107e-08
-1.89602e-06
-2.02891e-08
-1.87556e-06
-2.04567e-08
-1.85502e-06
-2.05487e-08
-1.83437e-06
-2.06533e-08
-1.81363e-06
-2.07406e-08
-1.79281e-06
-2.08214e-08
-1.7719e-06
-2.09208e-08
-1.7509e-06
-2.09988e-08
-1.72988e-06
-2.10232e-08
-1.70887e-06
-2.10127e-08
-1.6879e-06
-2.09798e-08
-1.66694e-06
-2.09607e-08
-1.64601e-06
-2.09302e-08
-1.62512e-06
-2.09e-08
-1.60425e-06
-2.08648e-08
-1.58345e-06
-2.08069e-08
-1.5627e-06
-2.07524e-08
-1.54197e-06
-2.07258e-08
-1.52128e-06
-2.0696e-08
-1.50074e-06
-2.05401e-08
-1.48029e-06
-2.04553e-08
-1.45992e-06
-2.0365e-08
-1.43968e-06
-2.02426e-08
-1.41955e-06
-2.01331e-08
-1.3995e-06
-2.00513e-08
-1.37953e-06
-1.99708e-08
-1.35966e-06
-1.98643e-08
-1.33992e-06
-1.97415e-08
-1.32032e-06
-1.96004e-08
-1.30089e-06
-1.94353e-08
-1.28164e-06
-1.92476e-08
-1.26255e-06
-1.90903e-08
-1.24368e-06
-1.88682e-08
-1.22494e-06
-1.87348e-08
-1.20641e-06
-1.85363e-08
-1.18808e-06
-1.83237e-08
-1.16995e-06
-1.81308e-08
-1.152e-06
-1.7956e-08
-1.13414e-06
-1.7856e-08
-1.11654e-06
-1.75974e-08
-1.09901e-06
-1.75307e-08
-1.08141e-06
-1.76023e-08
-1.06408e-06
-1.73266e-08
-1.04641e-06
-1.76687e-08
-1.02886e-06
-1.75453e-08
-1.01248e-06
-1.63833e-08
-9.95743e-07
-1.6732e-08
-9.78748e-07
-1.69941e-08
-9.62901e-07
-1.58452e-08
-9.42373e-07
-2.05269e-08
-9.22346e-07
-2.00252e-08
-9.10027e-07
-1.2318e-08
-8.93058e-07
-1.6967e-08
-8.81648e-07
-1.14088e-08
-8.78057e-07
-3.58938e-09
-8.88095e-07
1.00393e-08
-8.98603e-07
1.05091e-08
-8.95844e-07
-2.7576e-09
-8.92077e-07
-3.76596e-09
-8.83844e-07
-8.23284e-09
-8.74715e-07
-9.1284e-09
-8.64061e-07
-1.06533e-08
-8.53244e-07
-1.08164e-08
-8.41742e-07
-1.15013e-08
-8.29957e-07
-1.17847e-08
-8.17375e-07
-1.25816e-08
-8.05102e-07
-1.22735e-08
-7.9095e-07
-1.41516e-08
-7.76799e-07
-1.41508e-08
-7.64982e-07
-1.18176e-08
-7.5146e-07
-1.35233e-08
-7.39485e-07
-1.19759e-08
-7.29974e-07
-9.51234e-09
-7.24414e-07
-5.5626e-09
-7.18962e-07
-5.45454e-09
-7.09174e-07
-9.78998e-09
-6.99166e-07
-1.00119e-08
-6.88553e-07
-1.06157e-08
-6.77287e-07
-1.12709e-08
-6.66739e-07
-1.0552e-08
-6.5538e-07
-1.13647e-08
-6.44662e-07
-1.07249e-08
-6.31561e-07
-1.31086e-08
-6.18776e-07
-1.27939e-08
-6.08371e-07
-1.04139e-08
-5.96273e-07
-1.21084e-08
-5.8478e-07
-1.15055e-08
-5.76503e-07
-8.29104e-09
-5.49297e-07
-2.7221e-08
-5.25757e-07
-2.35527e-08
-5.21899e-07
-3.86437e-09
-5.0017e-07
-2.17165e-08
-5.22047e-07
2.19337e-08
-5.55956e-07
3.40688e-08
-6.93084e-07
1.3736e-07
-8.30164e-07
1.37522e-07
-9.19122e-07
8.9715e-08
-9.76772e-07
5.83484e-08
-1.01457e-06
3.84281e-08
-1.03985e-06
2.58427e-08
-1.057e-06
1.76662e-08
-1.06875e-06
1.22145e-08
-1.07672e-06
8.38273e-09
-1.08187e-06
5.5311e-09
-1.08487e-06
3.34412e-09
-1.08636e-06
1.79981e-09
-1.08646e-06
3.73278e-10
-1.08512e-06
-1.08644e-09
-1.08277e-06
-2.12163e-09
-1.07967e-06
-2.8877e-09
-1.07596e-06
-3.51799e-09
-1.0717e-06
-4.08847e-09
-1.0669e-06
-4.64518e-09
-1.06157e-06
-5.18249e-09
-1.05577e-06
-5.67157e-09
-1.04956e-06
-6.08922e-09
-1.04302e-06
-6.43003e-09
-1.03621e-06
-6.70354e-09
-1.02919e-06
-6.93062e-09
-1.02197e-06
-7.13375e-09
-1.01453e-06
-7.36315e-09
-1.00687e-06
-7.58967e-09
-9.99001e-07
-7.80029e-09
-9.90909e-07
-8.03265e-09
-9.82566e-07
-8.28808e-09
-9.73955e-07
-8.56271e-09
-9.65046e-07
-8.8648e-09
-9.55823e-07
-9.18243e-09
-9.46296e-07
-9.49064e-09
-9.36498e-07
-9.76514e-09
-9.26491e-07
-9.97684e-09
-9.16338e-07
-1.01254e-08
-9.06099e-07
-1.02151e-08
-8.95823e-07
-1.02529e-08
-8.85524e-07
-1.0278e-08
-8.75247e-07
-1.02583e-08
-8.65034e-07
-1.01952e-08
-8.54927e-07
-1.00898e-08
-8.44962e-07
-9.95024e-09
-8.35143e-07
-9.8044e-09
-8.25441e-07
-9.68864e-09
-8.15795e-07
-9.63281e-09
-8.06137e-07
-9.64669e-09
-7.96403e-07
-9.72246e-09
-7.86546e-07
-9.84605e-09
-7.76533e-07
-1.00024e-08
-7.66364e-07
-1.01588e-08
-7.56109e-07
-1.02461e-08
-7.45918e-07
-1.01818e-08
-7.35958e-07
-9.95141e-09
-7.26271e-07
-9.67903e-09
-7.16705e-07
-9.55742e-09
-7.06978e-07
-9.72003e-09
-6.9694e-07
-1.00299e-08
-6.86837e-07
-1.00965e-08
-6.7712e-07
-9.70984e-09
-6.67962e-07
-9.15061e-09
-6.59252e-07
-8.70259e-09
-6.50348e-07
-8.89694e-09
-6.40931e-07
-9.41089e-09
-6.31439e-07
-9.48476e-09
-6.22413e-07
-9.01934e-09
-6.1386e-07
-8.54635e-09
-6.05008e-07
-8.8461e-09
-5.95375e-07
-9.62667e-09
-5.85595e-07
-9.77436e-09
-5.76184e-07
-9.40508e-09
-5.6682e-07
-9.35793e-09
-5.56794e-07
-1.00201e-08
-5.46539e-07
-1.02491e-08
-5.36954e-07
-9.5787e-09
-5.27921e-07
-9.02716e-09
-5.18675e-07
-9.24129e-09
-5.09697e-07
-8.97332e-09
-5.00524e-07
-9.16815e-09
-5.75252e-09
-6.14498e-05
-2.97408e-06
-5.9755e-05
-3.37672e-06
-5.80069e-05
-3.47208e-06
-5.62127e-05
-3.56268e-06
-5.43723e-05
-3.64666e-06
-5.256e-05
-3.5823e-06
-5.07823e-05
-3.55016e-06
-4.90082e-05
-3.55461e-06
-4.72033e-05
-3.67266e-06
-4.53574e-05
-3.78763e-06
-4.34534e-05
-3.88031e-06
-4.14723e-05
-3.94912e-06
-3.94031e-05
-4.03523e-06
-3.73274e-05
-4.03754e-06
-3.52536e-05
-4.05238e-06
-3.32209e-05
-4.0877e-06
-3.12249e-05
-4.09222e-06
-2.92424e-05
-4.05887e-06
-2.72496e-05
-4.07052e-06
-2.52672e-05
-4.02841e-06
-2.32695e-05
-3.97524e-06
-2.13065e-05
-3.84363e-06
-1.93544e-05
-3.7815e-06
-1.74011e-05
-3.88852e-06
-1.54492e-05
-4.07126e-06
-1.35245e-05
-4.08692e-06
-1.16217e-05
-3.87523e-06
-9.76957e-06
-3.48963e-06
-7.9113e-06
-3.47637e-06
-6.01458e-06
-3.72305e-06
-4.11944e-06
-3.85657e-06
-2.24928e-06
-3.7089e-06
-5.48318e-07
-3.4692e-06
1.13256e-06
-3.54181e-06
2.94096e-06
-3.72662e-06
4.88936e-06
-3.66572e-06
6.78687e-06
-3.43007e-06
8.41637e-06
-3.10798e-06
9.84723e-06
-3.04839e-06
1.13054e-05
-3.2787e-06
1.29579e-05
-3.41756e-06
1.47345e-05
-3.2984e-06
1.64123e-05
-3.03387e-06
1.79267e-05
-2.97626e-06
1.94483e-05
-3.22835e-06
2.10737e-05
-3.43868e-06
2.27486e-05
-3.27476e-06
2.4313e-05
-2.85818e-06
2.56967e-05
-2.60885e-06
2.7056e-05
-2.70494e-06
2.85084e-05
-2.87454e-06
3.00289e-05
-3.02275e-06
3.15416e-05
-3.04015e-06
3.29391e-05
-2.82561e-06
3.41911e-05
-2.50436e-06
3.53477e-05
-2.31196e-06
3.65505e-05
-2.41794e-06
3.78098e-05
-2.57988e-06
3.89876e-05
-2.44399e-06
4.00401e-05
-2.1657e-06
4.10475e-05
-2.05642e-06
4.21034e-05
-2.15265e-06
4.32228e-05
-2.33046e-06
4.41971e-05
-2.01287e-06
4.4939e-05
-1.46858e-06
4.5613e-05
-1.19831e-06
4.62987e-05
-1.18534e-06
4.69642e-05
-1.2031e-06
4.74283e-05
-8.62315e-07
4.75971e-05
-3.55274e-07
4.76849e-05
-5.6953e-08
4.76614e-05
2.24145e-07
4.76899e-05
3.9279e-07
4.75238e-05
8.1464e-07
4.74955e-05
1.44401e-06
4.73592e-05
2.47199e-06
4.76194e-05
3.56281e-06
4.83909e-05
4.9114e-06
4.6211e-05
7.17476e-06
4.17606e-05
6.84769e-06
3.62144e-05
7.60719e-06
3.09123e-05
5.85586e-06
2.85482e-05
3.44198e-06
2.6192e-05
2.90382e-06
2.48214e-05
8.98493e-07
2.33377e-05
1.5523e-06
2.19772e-05
1.51592e-06
2.19197e-05
-1.49512e-07
2.25665e-05
-1.04022e-06
2.24731e-05
-1.4135e-07
2.24321e-05
-1.83336e-07
2.25771e-05
-3.3469e-07
2.26445e-05
-5.27749e-08
2.27472e-05
-1.08047e-08
2.2877e-05
1.45442e-07
2.28169e-05
4.8418e-07
2.27422e-05
1.03988e-06
2.25264e-05
1.47142e-06
2.27867e-05
2.1762e-06
2.25987e-05
3.35415e-06
2.16967e-05
3.40157e-06
1.92672e-05
3.45487e-06
1.59328e-05
3.17093e-06
1.33224e-05
2.53671e-06
1.18174e-05
9.64974e-07
1.13126e-05
-1.91766e-07
1.12638e-05
-3.32138e-07
1.12968e-05
-1.35023e-07
1.18159e-05
-6.31504e-07
1.25629e-05
-9.73165e-07
1.29703e-05
-5.92197e-07
1.31609e-05
-4.10926e-07
1.32998e-05
-3.06287e-07
1.33835e-05
-1.75913e-07
1.35563e-05
-6.28624e-08
1.37395e-05
5.81929e-08
1.40981e-05
4.44387e-07
1.42693e-05
8.13897e-07
1.41013e-05
7.23304e-07
1.32585e-05
8.51903e-07
1.21634e-05
8.07201e-07
1.15463e-05
4.55431e-07
1.13654e-05
-1.48331e-07
1.14422e-05
-4.52415e-07
1.15253e-05
-3.0048e-07
1.18229e-05
-4.82803e-07
1.21768e-05
-5.3889e-07
1.23795e-05
-3.63167e-07
1.25216e-05
-3.10268e-07
1.26483e-05
-2.89824e-07
1.27576e-05
-2.4872e-07
1.28858e-05
-2.57441e-07
1.30099e-05
-2.3807e-07
1.31165e-05
-2.03976e-07
1.32066e-05
-1.77225e-07
1.32862e-05
-1.63003e-07
1.33611e-05
-1.55278e-07
1.34256e-05
-1.35543e-07
1.34874e-05
-1.228e-07
1.35453e-05
-1.15005e-07
1.35918e-05
-9.40056e-08
1.36264e-05
-6.88292e-08
1.36549e-05
-5.27009e-08
1.36734e-05
-3.93769e-08
1.36771e-05
-1.35661e-08
1.36733e-05
8.20619e-09
1.36632e-05
2.35301e-08
1.36453e-05
3.79455e-08
1.36146e-05
5.68074e-08
1.35721e-05
7.89876e-08
1.35226e-05
9.65854e-08
1.34672e-05
1.15366e-07
1.34053e-05
1.28339e-07
1.3336e-05
1.35077e-07
1.32587e-05
1.49253e-07
1.31694e-05
1.74141e-07
1.30763e-05
1.88959e-07
1.29804e-05
1.94257e-07
1.288e-05
1.99662e-07
1.27699e-05
2.15124e-07
1.26531e-05
2.33232e-07
1.25319e-05
2.42951e-07
1.24102e-05
2.4286e-07
1.2284e-05
2.49594e-07
1.21486e-05
2.68833e-07
1.20102e-05
2.79345e-07
1.18698e-05
2.78763e-07
1.17284e-05
2.80487e-07
1.15821e-05
2.91679e-07
1.14288e-05
3.08172e-07
1.12739e-05
3.10137e-07
1.11218e-05
3.02469e-07
1.09665e-05
3.08267e-07
1.08029e-05
3.26001e-07
1.06396e-05
3.28607e-07
1.04782e-05
3.24769e-07
1.0313e-05
3.26954e-07
1.01464e-05
3.30597e-07
9.97972e-06
3.3386e-07
9.81334e-06
3.35377e-07
9.64515e-06
3.38826e-07
9.47648e-06
3.36264e-07
9.3061e-06
3.37007e-07
9.13444e-06
3.41763e-07
8.9644e-06
3.42313e-07
8.79672e-06
3.36632e-07
8.63113e-06
3.28476e-07
8.4648e-06
3.32334e-07
8.29769e-06
3.37554e-07
8.13046e-06
3.35431e-07
7.96404e-06
3.29592e-07
7.79863e-06
3.28128e-07
7.6337e-06
3.29399e-07
7.4727e-06
3.24031e-07
7.31514e-06
3.1824e-07
7.15817e-06
3.14106e-07
6.99795e-06
3.18111e-07
6.83974e-06
3.16015e-07
6.68708e-06
3.06141e-07
6.53787e-06
2.96754e-07
6.38896e-06
2.97451e-07
6.23959e-06
3.00023e-07
6.08907e-06
3.01845e-07
5.94585e-06
2.88706e-07
5.80644e-06
2.79899e-07
5.66751e-06
2.75368e-07
5.52681e-06
2.77356e-07
5.38605e-06
2.81513e-07
5.25241e-06
2.71075e-07
5.1223e-06
2.60661e-07
4.99111e-06
2.58587e-07
4.85897e-06
2.63348e-07
4.73295e-06
2.54822e-07
4.60925e-06
2.49722e-07
4.48667e-06
2.43253e-07
4.36797e-06
2.34378e-07
4.24834e-06
2.40343e-07
4.13074e-06
2.37002e-07
4.01406e-06
2.34199e-07
3.89889e-06
2.32233e-07
3.78931e-06
2.17208e-07
3.6799e-06
2.14291e-07
3.57278e-06
2.15333e-07
3.46538e-06
2.1703e-07
3.35909e-06
2.11748e-07
3.25641e-06
2.06196e-07
3.15467e-06
2.04915e-07
3.05494e-06
1.98348e-07
2.95775e-06
1.91332e-07
2.86126e-06
1.93771e-07
2.76394e-06
1.95484e-07
2.66953e-06
1.89366e-07
2.57768e-06
1.85417e-07
2.48731e-06
1.79509e-07
2.39951e-06
1.73053e-07
2.31253e-06
1.77298e-07
2.22471e-06
1.77923e-07
2.13487e-06
1.77149e-07
2.04748e-06
1.71114e-07
1.96225e-06
1.70162e-07
1.88061e-06
1.65201e-07
1.79983e-06
1.62652e-07
1.71845e-06
1.6151e-07
1.63887e-06
1.59797e-07
1.5612e-06
1.5635e-07
1.48321e-06
1.545e-07
1.40303e-06
1.61083e-07
1.32523e-06
1.55014e-07
1.25098e-06
1.46976e-07
1.17693e-06
1.48668e-07
1.10292e-06
1.4851e-07
1.03019e-06
1.46113e-07
9.57136e-07
1.46049e-07
8.855e-07
1.42829e-07
8.15193e-07
1.42665e-07
7.45419e-07
1.40905e-07
6.75643e-07
1.37398e-07
6.05014e-07
1.38183e-07
5.35454e-07
1.39084e-07
4.69353e-07
1.34294e-07
4.04102e-07
1.31327e-07
3.38885e-07
1.2874e-07
2.73189e-07
1.31209e-07
2.08083e-07
1.30563e-07
1.43353e-07
1.29094e-07
8.01157e-08
1.26906e-07
1.79775e-08
1.24937e-07
-4.24522e-08
1.20151e-07
-1.02279e-07
1.1843e-07
-1.62178e-07
1.19253e-07
-2.21757e-07
1.19276e-07
-2.80648e-07
1.18181e-07
-3.38455e-07
1.16063e-07
-3.95717e-07
1.14358e-07
-4.52925e-07
1.13339e-07
-5.08519e-07
1.1031e-07
-5.6301e-07
1.09211e-07
-6.16546e-07
1.07571e-07
-6.69613e-07
1.06291e-07
-7.22124e-07
1.04853e-07
-7.74239e-07
1.04744e-07
-8.26297e-07
1.04182e-07
-8.76473e-07
1.00446e-07
-9.25632e-07
9.81974e-08
-9.7437e-07
9.673e-08
-1.02249e-06
9.55861e-08
-1.06988e-06
9.49713e-08
-1.11668e-06
9.38885e-08
-1.16239e-06
9.17256e-08
-1.20744e-06
9.01611e-08
-1.25162e-06
8.76628e-08
-1.29496e-06
8.59647e-08
-1.3378e-06
8.56424e-08
-1.37987e-06
8.42771e-08
-1.42095e-06
8.23441e-08
-1.46139e-06
8.10022e-08
-1.50127e-06
7.94324e-08
-1.54047e-06
7.79527e-08
-1.57873e-06
7.65261e-08
-1.61608e-06
7.48359e-08
-1.65267e-06
7.33122e-08
-1.6885e-06
7.17148e-08
-1.72365e-06
7.00504e-08
-1.75805e-06
6.87196e-08
-1.79136e-06
6.68425e-08
-1.82385e-06
6.51276e-08
-1.85558e-06
6.32292e-08
-1.88643e-06
6.13523e-08
-1.91658e-06
6.03072e-08
-1.94567e-06
5.82857e-08
-1.97386e-06
5.64187e-08
-2.00116e-06
5.44753e-08
-2.0276e-06
5.26667e-08
-2.05309e-06
5.09055e-08
-2.07759e-06
4.89597e-08
-2.1011e-06
4.70102e-08
-2.12369e-06
4.50489e-08
-2.14539e-06
4.32054e-08
-2.16605e-06
4.13135e-08
-2.18565e-06
3.92452e-08
-2.20423e-06
3.71973e-08
-2.22185e-06
3.50996e-08
-2.23848e-06
3.30421e-08
-2.25418e-06
3.13688e-08
-2.26873e-06
2.91738e-08
-2.28222e-06
2.69473e-08
-2.29467e-06
2.4685e-08
-2.30612e-06
2.28863e-08
-2.31653e-06
2.08756e-08
-2.32589e-06
1.87836e-08
-2.33417e-06
1.66821e-08
-2.34143e-06
1.45515e-08
-2.34763e-06
1.24013e-08
-2.3528e-06
1.03127e-08
-2.35692e-06
8.21967e-09
-2.36003e-06
6.19347e-09
-2.36213e-06
4.20411e-09
-2.36324e-06
2.21658e-09
-2.36337e-06
2.34532e-10
-2.36254e-06
-1.74471e-09
-2.36075e-06
-3.6141e-09
-2.35804e-06
-5.36273e-09
-2.35443e-06
-7.13594e-09
-2.34991e-06
-8.9405e-09
-2.34453e-06
-1.07296e-08
-2.33829e-06
-1.25005e-08
-2.33122e-06
-1.41209e-08
-2.32333e-06
-1.57087e-08
-2.31465e-06
-1.72685e-08
-2.30521e-06
-1.886e-08
-2.29505e-06
-2.0394e-08
-2.28422e-06
-2.16734e-08
-2.27265e-06
-2.30471e-08
-2.26043e-06
-2.43634e-08
-2.24759e-06
-2.56415e-08
-2.23415e-06
-2.68584e-08
-2.22012e-06
-2.79727e-08
-2.20551e-06
-2.90939e-08
-2.19039e-06
-3.01449e-08
-2.17484e-06
-3.11561e-08
-2.15885e-06
-3.20241e-08
-2.14231e-06
-3.30124e-08
-2.12533e-06
-3.38799e-08
-2.10797e-06
-3.4654e-08
-2.09023e-06
-3.54094e-08
-2.07218e-06
-3.60994e-08
-2.05382e-06
-3.66669e-08
-2.0351e-06
-3.73377e-08
-2.01609e-06
-3.79035e-08
-1.99683e-06
-3.8438e-08
-1.97729e-06
-3.90192e-08
-1.95753e-06
-3.94943e-08
-1.93756e-06
-3.99056e-08
-1.91742e-06
-4.02577e-08
-1.89711e-06
-4.06085e-08
-1.87666e-06
-4.09204e-08
-1.85608e-06
-4.11297e-08
-1.83536e-06
-4.13789e-08
-1.81454e-06
-4.15641e-08
-1.79366e-06
-4.17091e-08
-1.77272e-06
-4.18653e-08
-1.75175e-06
-4.19827e-08
-1.73075e-06
-4.20359e-08
-1.70974e-06
-4.20241e-08
-1.68877e-06
-4.19531e-08
-1.66778e-06
-4.19565e-08
-1.6468e-06
-4.19177e-08
-1.62585e-06
-4.18573e-08
-1.60493e-06
-4.17896e-08
-1.58405e-06
-4.16833e-08
-1.56324e-06
-4.15674e-08
-1.54251e-06
-4.14678e-08
-1.52187e-06
-4.13394e-08
-1.50133e-06
-4.10828e-08
-1.48085e-06
-4.09401e-08
-1.46045e-06
-4.07675e-08
-1.44015e-06
-4.05444e-08
-1.41993e-06
-4.0348e-08
-1.39984e-06
-4.01444e-08
-1.37984e-06
-3.99703e-08
-1.35999e-06
-3.97192e-08
-1.34024e-06
-3.94936e-08
-1.32065e-06
-3.91904e-08
-1.30116e-06
-3.89244e-08
-1.28187e-06
-3.85425e-08
-1.26264e-06
-3.83165e-08
-1.24369e-06
-3.78198e-08
-1.22485e-06
-3.75753e-08
-1.20631e-06
-3.7076e-08
-1.18816e-06
-3.64791e-08
-1.17013e-06
-3.61549e-08
-1.15245e-06
-3.56383e-08
-1.13448e-06
-3.58298e-08
-1.11684e-06
-3.52303e-08
-1.09873e-06
-3.56405e-08
-1.08102e-06
-3.53153e-08
-1.06446e-06
-3.38804e-08
-1.04805e-06
-3.40784e-08
-1.03103e-06
-3.45646e-08
-1.0144e-06
-3.30184e-08
-9.92793e-07
-3.83335e-08
-9.72257e-07
-3.75289e-08
-9.60337e-07
-2.7763e-08
-9.48273e-07
-3.25902e-08
-9.41117e-07
-2.71782e-08
-9.37201e-07
-1.62328e-08
-9.48992e-07
-5.17389e-09
-9.58867e-07
-1.53248e-09
-9.53681e-07
-8.77289e-09
-9.42108e-07
-1.53167e-09
-9.25968e-07
-5.62809e-09
-9.14902e-07
-1.38219e-08
-9.02406e-07
-1.62605e-08
-8.91485e-07
-1.9152e-08
-8.79834e-07
-2.07765e-08
-8.68434e-07
-2.20493e-08
-8.56502e-07
-2.27456e-08
-8.44563e-07
-2.34368e-08
-8.30546e-07
-2.57977e-08
-8.1667e-07
-2.64531e-08
-8.05428e-07
-2.35107e-08
-7.94082e-07
-2.54918e-08
-7.83867e-07
-2.43601e-08
-7.7473e-07
-2.09477e-08
-7.7001e-07
-1.82366e-08
-7.65008e-07
-1.69713e-08
-7.54395e-07
-2.01162e-08
-7.42273e-07
-1.76762e-08
-7.2828e-07
-1.94379e-08
-7.16909e-07
-2.11525e-08
-7.03465e-07
-2.34445e-08
-6.91874e-07
-2.21945e-08
-6.7664e-07
-2.64918e-08
-6.6433e-07
-2.28469e-08
-6.53116e-07
-2.2564e-08
-6.44432e-07
-1.93936e-08
-6.36036e-07
-2.14862e-08
-6.26773e-07
-2.20373e-08
-6.18468e-07
-1.86959e-08
-5.89174e-07
-4.13773e-08
-5.63872e-07
-3.67809e-08
-5.60307e-07
-1.18311e-08
-5.55478e-07
-3.20324e-08
-5.87809e-07
8.77739e-09
-6.25031e-07
3.33068e-08
-7.81934e-07
1.35078e-07
-9.34078e-07
1.73785e-07
-1.03302e-06
1.32431e-07
-1.06669e-06
1.70271e-07
-1.05026e-06
1.19971e-07
-1.04751e-06
8.58894e-08
-1.05435e-06
6.41772e-08
-1.06382e-06
4.69601e-08
-1.07306e-06
3.4215e-08
-1.08092e-06
2.47479e-08
-1.08709e-06
1.76708e-08
-1.09147e-06
1.21244e-08
-1.09421e-06
7.68479e-09
-1.09559e-06
4.20654e-09
-1.09549e-06
1.22184e-09
-1.09416e-06
-1.37919e-09
-1.09226e-06
-3.38035e-09
-1.08947e-06
-5.25706e-09
-1.0859e-06
-6.77886e-09
-1.08165e-06
-8.05654e-09
-1.07677e-06
-9.22336e-09
-1.07132e-06
-1.03306e-08
-1.06537e-06
-1.13547e-08
-1.05898e-06
-1.22519e-08
-1.05226e-06
-1.29933e-08
-1.04527e-06
-1.35832e-08
-1.03807e-06
-1.40535e-08
-1.03067e-06
-1.4457e-08
-1.02308e-06
-1.48474e-08
-1.01534e-06
-1.52214e-08
-1.00739e-06
-1.56339e-08
-9.99182e-07
-1.60982e-08
-9.90741e-07
-1.65535e-08
-9.82092e-07
-1.70097e-08
-9.73235e-07
-1.74829e-08
-9.64184e-07
-1.79722e-08
-9.54953e-07
-1.8463e-08
-9.45563e-07
-1.8925e-08
-9.36024e-07
-1.93431e-08
-9.26325e-07
-1.97095e-08
-9.16484e-07
-1.99956e-08
-9.06525e-07
-2.02001e-08
-8.96465e-07
-2.0336e-08
-8.86381e-07
-2.03817e-08
-8.7629e-07
-2.03666e-08
-8.66227e-07
-2.02731e-08
-8.56232e-07
-2.00978e-08
-8.46318e-07
-1.98757e-08
-8.36466e-07
-1.96661e-08
-8.26639e-07
-1.95249e-08
-8.168e-07
-1.94787e-08
-8.06936e-07
-1.9517e-08
-7.97044e-07
-1.96193e-08
-7.87114e-07
-1.97799e-08
-7.77118e-07
-2.00016e-08
-7.67035e-07
-2.02443e-08
-7.56896e-07
-2.03875e-08
-7.46796e-07
-2.02834e-08
-7.36836e-07
-1.99116e-08
-7.27024e-07
-1.94915e-08
-7.17238e-07
-1.9344e-08
-7.07387e-07
-1.95702e-08
-6.97547e-07
-1.98696e-08
-6.87886e-07
-1.97564e-08
-6.78523e-07
-1.90714e-08
-6.69529e-07
-1.81422e-08
-6.60272e-07
-1.79583e-08
-6.50667e-07
-1.84997e-08
-6.41088e-07
-1.89882e-08
-6.31872e-07
-1.8698e-08
-6.23063e-07
-1.78265e-08
-6.14007e-07
-1.75999e-08
-6.04371e-07
-1.84803e-08
-5.94804e-07
-1.91921e-08
-5.85618e-07
-1.89574e-08
-5.76621e-07
-1.83996e-08
-5.67047e-07
-1.89292e-08
-5.57519e-07
-1.95444e-08
-5.48507e-07
-1.92572e-08
-5.39723e-07
-1.83598e-08
-5.30735e-07
-1.80129e-08
-5.21791e-07
-1.8183e-08
-5.12476e-07
-1.82839e-08
-5.02535e-07
-1.91008e-08
-1.35257e-08
-6.15534e-05
-4.48093e-06
-5.98487e-05
-5.08145e-06
-5.80938e-05
-5.22603e-06
-5.62939e-05
-5.36169e-06
-5.44461e-05
-5.4926e-06
-5.26179e-05
-5.40962e-06
-5.08098e-05
-5.35802e-06
-4.90117e-05
-5.35321e-06
-4.71959e-05
-5.48808e-06
-4.53504e-05
-5.63272e-06
-4.34585e-05
-5.77216e-06
-4.15097e-05
-5.89881e-06
-3.95358e-05
-6.01032e-06
-3.75252e-05
-6.04941e-06
-3.5502e-05
-6.07705e-06
-3.34911e-05
-6.10028e-06
-3.14997e-05
-6.08563e-06
-2.95167e-05
-6.04363e-06
-2.75545e-05
-6.03433e-06
-2.55891e-05
-5.99536e-06
-2.36335e-05
-5.93223e-06
-2.1663e-05
-5.81542e-06
-1.96883e-05
-5.75731e-06
-1.77372e-05
-5.84032e-06
-1.58891e-05
-5.92005e-06
-1.40643e-05
-5.9121e-06
-1.22158e-05
-5.72364e-06
-1.02563e-05
-5.44908e-06
-8.27761e-06
-5.45688e-06
-6.35798e-06
-5.64476e-06
-4.52133e-06
-5.69406e-06
-2.6795e-06
-5.55072e-06
-9.08767e-07
-5.24037e-06
8.2521e-07
-5.27634e-06
2.61255e-06
-5.5134e-06
4.54464e-06
-5.59792e-06
6.49741e-06
-5.38393e-06
8.32431e-06
-4.94038e-06
9.88886e-06
-4.61342e-06
1.13186e-05
-4.70797e-06
1.28863e-05
-4.9815e-06
1.46285e-05
-5.03963e-06
1.64016e-05
-4.81559e-06
1.80945e-05
-4.67179e-06
1.96524e-05
-4.78892e-06
2.11638e-05
-4.94123e-06
2.27355e-05
-4.84681e-06
2.43821e-05
-4.51022e-06
2.60052e-05
-4.24934e-06
2.75745e-05
-4.27341e-06
2.9073e-05
-4.36142e-06
3.04529e-05
-4.40014e-06
3.181e-05
-4.39928e-06
3.31821e-05
-4.20582e-06
3.4523e-05
-3.85854e-06
3.57609e-05
-3.54847e-06
3.69243e-05
-3.57901e-06
3.80573e-05
-3.70294e-06
3.91436e-05
-3.541e-06
4.02177e-05
-3.24795e-06
4.12697e-05
-3.11063e-06
4.23404e-05
-3.21581e-06
4.33432e-05
-3.33028e-06
4.4247e-05
-2.92724e-06
4.51159e-05
-2.3493e-06
4.60038e-05
-2.08575e-06
4.69148e-05
-2.07465e-06
4.75607e-05