/*--------------------------------*- C++ -*----------------------------------*\
| =========                 |                                                 |
| \\      /  F ield         | OpenFOAM: The Open Source CFD Toolbox           |
|  \\    /   O peration     | Version:  v2006                                 |
|   \\  /    A nd           | Website:  www.openfoam.com                      |
|    \\/     M anipulation  |                                                 |
\*---------------------------------------------------------------------------*/
FoamFile
{
    version     2.0;
    format      ascii;
    class       volScalarField;
    location    "3.2";
    object      k;
}
// * * * * * * * * * * * * * * * * * * * * * * * * * * * * * * * * * * * * * //

dimensions      [0 2 -2 0 0 0 0];


internalField   nonuniform List<scalar> 
33000
(
1.27478e-08
1.32602e-08
1.37892e-08
1.4452e-08
1.53749e-08
1.66957e-08
1.85176e-08
2.08998e-08
2.38114e-08
2.71895e-08
3.08998e-08
3.47482e-08
3.85231e-08
4.20551e-08
4.51701e-08
4.77873e-08
4.99703e-08
5.17751e-08
5.318e-08
5.43061e-08
5.52118e-08
5.59118e-08
5.6341e-08
5.6408e-08
5.63299e-08
5.64909e-08
5.69931e-08
5.76173e-08
5.77889e-08
5.76702e-08
5.76658e-08
5.79648e-08
5.82089e-08
5.83375e-08
5.86165e-08
5.92254e-08
5.98164e-08
6.01615e-08
6.01579e-08
6.01182e-08
6.04176e-08
6.09312e-08
6.1322e-08
6.13559e-08
6.12137e-08
6.1293e-08
6.17334e-08
6.22383e-08
6.24449e-08
6.23813e-08
6.2262e-08
6.21392e-08
6.20594e-08
6.20759e-08
6.21163e-08
6.20379e-08
6.17677e-08
6.14498e-08
6.12427e-08
6.11138e-08
6.09065e-08
6.06219e-08
6.03458e-08
6.02859e-08
6.03333e-08
6.02647e-08
6.00336e-08
5.97217e-08
5.94752e-08
5.92071e-08
5.8861e-08
5.84435e-08
5.79907e-08
5.75e-08
5.6949e-08
5.62912e-08
5.54477e-08
5.42723e-08
5.24805e-08
4.99005e-08
4.6991e-08
4.44066e-08
4.26685e-08
4.17085e-08
4.07233e-08
4.07478e-08
4.08477e-08
4.07734e-08
4.05423e-08
4.04415e-08
4.02892e-08
4.00978e-08
3.98831e-08
3.95431e-08
3.91123e-08
3.85806e-08
3.79139e-08
3.70211e-08
3.58694e-08
3.43712e-08
3.27358e-08
3.14028e-08
3.05383e-08
3.01715e-08
2.96754e-08
2.9381e-08
2.94233e-08
2.94468e-08
2.92862e-08
2.90456e-08
2.88571e-08
2.86533e-08
2.84677e-08
2.82351e-08
2.79353e-08
2.74937e-08
2.70232e-08
2.64871e-08
2.60672e-08
2.59665e-08
2.59597e-08
2.60849e-08
2.60742e-08
2.6063e-08
2.61519e-08
2.62108e-08
2.62575e-08
2.63176e-08
2.6358e-08
2.63789e-08
2.64047e-08
2.64386e-08
2.64646e-08
2.64755e-08
2.64725e-08
2.64761e-08
2.64809e-08
2.64766e-08
2.64622e-08
2.64502e-08
2.64435e-08
2.64231e-08
2.63963e-08
2.63673e-08
2.63351e-08
2.62945e-08
2.62505e-08
2.62124e-08
2.61761e-08
2.61304e-08
2.60835e-08
2.60304e-08
2.59742e-08
2.59298e-08
2.58904e-08
2.58437e-08
2.5791e-08
2.57395e-08
2.56956e-08
2.56537e-08
2.5608e-08
2.55603e-08
2.55183e-08
2.54814e-08
2.54399e-08
2.53933e-08
2.53491e-08
2.53076e-08
2.52666e-08
2.52246e-08
2.51807e-08
2.5141e-08
2.51058e-08
2.50706e-08
2.50346e-08
2.5001e-08
2.49724e-08
2.49479e-08
2.49251e-08
2.49035e-08
2.48834e-08
2.48646e-08
2.48493e-08
2.48371e-08
2.48263e-08
2.48153e-08
2.48033e-08
2.47956e-08
2.47882e-08
2.47798e-08
2.47686e-08
2.47588e-08
2.47504e-08
2.47388e-08
2.47244e-08
2.47067e-08
2.46866e-08
2.46644e-08
2.46392e-08
2.46075e-08
2.45761e-08
2.45434e-08
2.45056e-08
2.44637e-08
2.44199e-08
2.43725e-08
2.43223e-08
2.42748e-08
2.42231e-08
2.41663e-08
2.41072e-08
2.40485e-08
2.39869e-08
2.39218e-08
2.38557e-08
2.37857e-08
2.37167e-08
2.36455e-08
2.35714e-08
2.34958e-08
2.3418e-08
2.33373e-08
2.32573e-08
2.31765e-08
2.30923e-08
2.30067e-08
2.29188e-08
2.28303e-08
2.2739e-08
2.26509e-08
2.25635e-08
2.24761e-08
2.23896e-08
2.23024e-08
2.22158e-08
2.21309e-08
2.20475e-08
2.19649e-08
2.18812e-08
2.17999e-08
2.17197e-08
2.1639e-08
2.15593e-08
2.14799e-08
2.14016e-08
2.13225e-08
2.12477e-08
2.1174e-08
2.1097e-08
2.10233e-08
2.09511e-08
2.08793e-08
2.08091e-08
2.07401e-08
2.06726e-08
2.06076e-08
2.05416e-08
2.04746e-08
2.04133e-08
2.03529e-08
2.02924e-08
2.02309e-08
2.0172e-08
2.01184e-08
2.0064e-08
2.00124e-08
1.9962e-08
1.99122e-08
1.98606e-08
1.98123e-08
1.97662e-08
1.97191e-08
1.96712e-08
1.9621e-08
1.95701e-08
1.95172e-08
1.94628e-08
1.94086e-08
1.93532e-08
1.92971e-08
1.92397e-08
1.91833e-08
1.91245e-08
1.90631e-08
1.90011e-08
1.89372e-08
1.88729e-08
1.88084e-08
1.87421e-08
1.86747e-08
1.86059e-08
1.8535e-08
1.84641e-08
1.83931e-08
1.83209e-08
1.82483e-08
1.81747e-08
1.81005e-08
1.80261e-08
1.79511e-08
1.78755e-08
1.77994e-08
1.77228e-08
1.76457e-08
1.75685e-08
1.74905e-08
1.74119e-08
1.73326e-08
1.72533e-08
1.71737e-08
1.70933e-08
1.70122e-08
1.69305e-08
1.68493e-08
1.67687e-08
1.66885e-08
1.66087e-08
1.65294e-08
1.64506e-08
1.63722e-08
1.62941e-08
1.62163e-08
1.61386e-08
1.60614e-08
1.59846e-08
1.5908e-08
1.58313e-08
1.57549e-08
1.56789e-08
1.56029e-08
1.55271e-08
1.54512e-08
1.53751e-08
1.52988e-08
1.52224e-08
1.51458e-08
1.50691e-08
1.49921e-08
1.4915e-08
1.48377e-08
1.47602e-08
1.46828e-08
1.46054e-08
1.45279e-08
1.44502e-08
1.43723e-08
1.42944e-08
1.42163e-08
1.41382e-08
1.406e-08
1.39815e-08
1.39031e-08
1.38247e-08
1.37464e-08
1.36681e-08
1.35899e-08
1.3512e-08
1.34341e-08
1.33565e-08
1.32789e-08
1.32015e-08
1.31243e-08
1.30473e-08
1.29706e-08
1.28943e-08
1.28184e-08
1.27429e-08
1.26678e-08
1.25931e-08
1.25188e-08
1.24449e-08
1.23713e-08
1.22983e-08
1.22257e-08
1.21536e-08
1.2082e-08
1.2011e-08
1.19407e-08
1.1871e-08
1.1802e-08
1.17335e-08
1.16656e-08
1.15984e-08
1.15318e-08
1.14661e-08
1.14011e-08
1.13369e-08
1.12735e-08
1.12108e-08
1.11488e-08
1.10876e-08
1.10271e-08
1.09673e-08
1.09083e-08
1.08501e-08
1.07927e-08
1.07362e-08
1.06804e-08
1.06254e-08
1.05711e-08
1.05175e-08
1.04646e-08
1.04125e-08
1.03612e-08
1.03107e-08
1.0261e-08
1.02121e-08
1.01641e-08
1.01167e-08
1.00701e-08
1.00243e-08
9.97935e-09
9.93512e-09
9.89152e-09
9.84888e-09
9.80642e-09
9.76481e-09
9.72377e-09
9.68269e-09
9.64286e-09
9.60513e-09
9.56537e-09
9.52857e-09
9.49135e-09
9.44717e-09
9.41175e-09
9.38379e-09
9.34011e-09
9.32449e-09
9.29185e-09
9.3129e-09
9.28113e-09
9.27121e-09
9.2431e-09
9.22184e-09
9.19421e-09
9.16968e-09
9.14284e-09
9.11747e-09
9.09076e-09
9.0648e-09
9.03894e-09
9.01108e-09
8.98555e-09
8.96249e-09
8.93457e-09
8.91479e-09
8.88982e-09
8.87966e-09
8.85601e-09
8.83727e-09
8.81583e-09
8.79524e-09
8.77506e-09
8.75505e-09
8.73616e-09
8.7168e-09
8.69493e-09
8.6755e-09
8.66066e-09
8.63641e-09
8.62498e-09
8.60734e-09
8.55871e-09
8.54577e-09
8.54789e-09
8.49324e-09
8.58947e-09
8.56185e-09
8.93008e-09
8.9051e-09
9.01175e-09
9.05196e-09
9.0824e-09
9.10141e-09
9.11312e-09
9.11985e-09
9.12297e-09
9.12334e-09
9.12159e-09
9.11818e-09
9.11347e-09
9.1077e-09
9.10108e-09
9.09379e-09
9.08592e-09
9.0775e-09
9.06854e-09
9.05904e-09
9.04909e-09
9.03877e-09
9.02818e-09
9.0174e-09
9.00649e-09
8.99546e-09
8.9843e-09
8.97297e-09
8.96148e-09
8.94977e-09
8.93778e-09
8.92546e-09
8.91279e-09
8.89972e-09
8.88626e-09
8.87254e-09
8.85868e-09
8.84477e-09
8.83091e-09
8.81718e-09
8.80363e-09
8.7903e-09
8.77719e-09
8.76433e-09
8.75168e-09
8.73921e-09
8.72688e-09
8.71465e-09
8.70252e-09
8.69047e-09
8.67854e-09
8.6667e-09
8.65491e-09
8.64314e-09
8.63139e-09
8.61968e-09
8.60812e-09
8.59678e-09
8.58569e-09
8.57462e-09
8.56339e-09
8.55205e-09
8.54072e-09
8.52955e-09
8.51865e-09
8.5079e-09
8.49696e-09
8.486e-09
8.47519e-09
8.46476e-09
8.45467e-09
8.44412e-09
8.43363e-09
8.42393e-09
8.41471e-09
8.40444e-09
8.3942e-09
8.38334e-09
8.36185e-09
8.41273e-09
8.28723e-09
1.00117e-08
1.00203e-08
1.00373e-08
1.00692e-08
1.01244e-08
1.02118e-08
1.03407e-08
1.0517e-08
1.074e-08
1.10039e-08
1.12983e-08
1.16095e-08
1.19234e-08
1.22299e-08
1.25137e-08
1.27665e-08
1.29894e-08
1.31829e-08
1.33443e-08
1.34841e-08
1.36021e-08
1.37031e-08
1.3775e-08
1.38152e-08
1.38503e-08
1.39178e-08
1.40216e-08
1.41342e-08
1.41887e-08
1.42051e-08
1.42326e-08
1.42925e-08
1.43568e-08
1.43927e-08
1.44279e-08
1.4491e-08
1.45624e-08
1.46165e-08
1.46298e-08
1.463e-08
1.46556e-08
1.47036e-08
1.47436e-08
1.47459e-08
1.47295e-08
1.47441e-08
1.48035e-08
1.48633e-08
1.48733e-08
1.48308e-08
1.47715e-08
1.47151e-08
1.46747e-08
1.46558e-08
1.46387e-08
1.46021e-08
1.4542e-08
1.44801e-08
1.44372e-08
1.44017e-08
1.43669e-08
1.43603e-08
1.44176e-08
1.45722e-08
1.47627e-08
1.49109e-08
1.50292e-08
1.51815e-08
1.54353e-08
1.57276e-08
1.60375e-08
1.63574e-08
1.67661e-08
1.74481e-08
1.86646e-08
2.03386e-08
2.25873e-08
2.54246e-08
2.72219e-08
2.73556e-08
2.68781e-08
2.48069e-08
2.19077e-08
1.82255e-08
1.47037e-08
1.27428e-08
1.18797e-08
1.13553e-08
1.11277e-08
1.10533e-08
1.10436e-08
1.10196e-08
1.10491e-08
1.11089e-08
1.12918e-08
1.15086e-08
1.19746e-08
1.23296e-08
1.3183e-08
1.38467e-08
1.35733e-08
1.24753e-08
1.13217e-08
1.08148e-08
1.06186e-08
1.05445e-08
1.05313e-08
1.05442e-08
1.05261e-08
1.04946e-08
1.04889e-08
1.04882e-08
1.04894e-08
1.05429e-08
1.06632e-08
1.07641e-08
1.1116e-08
1.13119e-08
1.10957e-08
1.06976e-08
1.04873e-08
1.04355e-08
1.04253e-08
1.04165e-08
1.04174e-08
1.03983e-08
1.03737e-08
1.03614e-08
1.03615e-08
1.03578e-08
1.03528e-08
1.03545e-08
1.03638e-08
1.0371e-08
1.03685e-08
1.03626e-08
1.03702e-08
1.0381e-08
1.03831e-08
1.03771e-08
1.03862e-08
1.03975e-08
1.04e-08
1.04019e-08
1.04127e-08
1.0419e-08
1.0416e-08
1.04133e-08
1.04254e-08
1.04356e-08
1.04396e-08
1.04466e-08
1.04373e-08
1.04236e-08
1.04327e-08
1.04509e-08
1.04534e-08
1.04391e-08
1.04308e-08
1.04427e-08
1.04552e-08
1.04493e-08
1.04337e-08
1.04373e-08
1.04545e-08
1.04548e-08
1.044e-08
1.04356e-08
1.04466e-08
1.04575e-08
1.04466e-08
1.04283e-08
1.04341e-08
1.04492e-08
1.04445e-08
1.04327e-08
1.04279e-08
1.0429e-08
1.04286e-08
1.04265e-08
1.0425e-08
1.04172e-08
1.04144e-08
1.04174e-08
1.04136e-08
1.04021e-08
1.03899e-08
1.03936e-08
1.03969e-08
1.03906e-08
1.03802e-08
1.03779e-08
1.03762e-08
1.03682e-08
1.03597e-08
1.0353e-08
1.03538e-08
1.03487e-08
1.03361e-08
1.03239e-08
1.03232e-08
1.03231e-08
1.032e-08
1.03058e-08
1.02949e-08
1.02858e-08
1.0285e-08
1.02867e-08
1.02744e-08
1.02613e-08
1.02553e-08
1.02571e-08
1.02464e-08
1.02384e-08
1.02291e-08
1.02187e-08
1.0221e-08
1.02143e-08
1.02086e-08
1.02038e-08
1.01886e-08
1.01815e-08
1.01811e-08
1.01789e-08
1.01723e-08
1.01651e-08
1.01608e-08
1.01536e-08
1.01455e-08
1.01457e-08
1.01437e-08
1.01381e-08
1.01331e-08
1.01272e-08
1.01211e-08
1.01227e-08
1.01216e-08
1.01187e-08
1.01135e-08
1.01121e-08
1.01088e-08
1.01062e-08
1.01042e-08
1.01026e-08
1.01e-08
1.00981e-08
1.01005e-08
1.00969e-08
1.00925e-08
1.00928e-08
1.0092e-08
1.00905e-08
1.00897e-08
1.00879e-08
1.00875e-08
1.00862e-08
1.00837e-08
1.0083e-08
1.00833e-08
1.00814e-08
1.00796e-08
1.00777e-08
1.00782e-08
1.00774e-08
1.00762e-08
1.00749e-08
1.00737e-08
1.00713e-08
1.00699e-08
1.00697e-08
1.00691e-08
1.0068e-08
1.00666e-08
1.00652e-08
1.00641e-08
1.00625e-08
1.00615e-08
1.00603e-08
1.00592e-08
1.0058e-08
1.00572e-08
1.00562e-08
1.00544e-08
1.0053e-08
1.00518e-08
1.00507e-08
1.00499e-08
1.00488e-08
1.00475e-08
1.00463e-08
1.00449e-08
1.00436e-08
1.00428e-08
1.00417e-08
1.00405e-08
1.00393e-08
1.00381e-08
1.0037e-08
1.00359e-08
1.00347e-08
1.00336e-08
1.00324e-08
1.00313e-08
1.00303e-08
1.00292e-08
1.00281e-08
1.0027e-08
1.00259e-08
1.0025e-08
1.0024e-08
1.00229e-08
1.00219e-08
1.00209e-08
1.00199e-08
1.0019e-08
1.0018e-08
1.0017e-08
1.00161e-08
1.00153e-08
1.00144e-08
1.00135e-08
1.00127e-08
1.00118e-08
1.00111e-08
1.00103e-08
1.00095e-08
1.00088e-08
1.00081e-08
1.00075e-08
1.00069e-08
1.00063e-08
1.00058e-08
1.00053e-08
1.00049e-08
1.00046e-08
1.00043e-08
1.00041e-08
1.00038e-08
1.00037e-08
1.00035e-08
1.00034e-08
1.00033e-08
1.00032e-08
1.00031e-08
1.0003e-08
1.0003e-08
1.00029e-08
1.00028e-08
1.00027e-08
1.00026e-08
1.00025e-08
1.00023e-08
1.00022e-08
1.00021e-08
1.0002e-08
1.00019e-08
1.00018e-08
1.00016e-08
1.00015e-08
1.00013e-08
1.00012e-08
1.00011e-08
1.00009e-08
1.00007e-08
1.00005e-08
1.00003e-08
1.00002e-08
9.99998e-09
9.99979e-09
9.9996e-09
9.99941e-09
9.99922e-09
9.99901e-09
9.99878e-09
9.99854e-09
9.9983e-09
9.99806e-09
9.99782e-09
9.99757e-09
9.99731e-09
9.99704e-09
9.99677e-09
9.99648e-09
9.99617e-09
9.99586e-09
9.99556e-09
9.99527e-09
9.99498e-09
9.99469e-09
9.99439e-09
9.99407e-09
9.99375e-09
9.9934e-09
9.99306e-09
9.99274e-09
9.99242e-09
9.9921e-09
9.99179e-09
9.99147e-09
9.99116e-09
9.99083e-09
9.99051e-09
9.99018e-09
9.98988e-09
9.98956e-09
9.98925e-09
9.98889e-09
9.98856e-09
9.98817e-09
9.98777e-09
9.98744e-09
9.98709e-09
9.98693e-09
9.9866e-09
9.98651e-09
9.98611e-09
9.98538e-09
9.98512e-09
9.98518e-09
9.98494e-09
9.98664e-09
9.98584e-09
9.9825e-09
9.98193e-09
9.97984e-09
9.97883e-09
9.97687e-09
9.97772e-09
9.97981e-09
9.98115e-09
9.98301e-09
9.98121e-09
9.98053e-09
9.9798e-09
9.97965e-09
9.97941e-09
9.97936e-09
9.97928e-09
9.97984e-09
9.97965e-09
9.9785e-09
9.97825e-09
9.97766e-09
9.9773e-09
9.97542e-09
9.97551e-09
9.97755e-09
9.97782e-09
9.97829e-09
9.97727e-09
9.97771e-09
9.97708e-09
9.97832e-09
9.97683e-09
9.97577e-09
9.97462e-09
9.974e-09
9.97511e-09
9.975e-09
9.98416e-09
9.98208e-09
9.98428e-09
9.98088e-09
1.00002e-08
1e-08
1.00254e-08
1.00253e-08
9.99892e-09
9.99111e-09
9.99483e-09
9.99049e-09
9.98308e-09
9.97925e-09
9.97655e-09
9.97462e-09
9.97319e-09
9.9721e-09
9.9713e-09
9.97086e-09
9.9707e-09
9.9707e-09
9.97079e-09
9.97088e-09
9.97097e-09
9.97108e-09
9.97123e-09
9.97141e-09
9.9716e-09
9.97176e-09
9.97187e-09
9.97193e-09
9.97196e-09
9.97198e-09
9.97202e-09
9.97207e-09
9.97215e-09
9.97231e-09
9.97248e-09
9.97265e-09
9.97282e-09
9.97299e-09
9.97314e-09
9.97325e-09
9.97335e-09
9.97344e-09
9.97352e-09
9.97357e-09
9.9736e-09
9.9736e-09
9.97356e-09
9.97347e-09
9.97334e-09
9.9732e-09
9.97308e-09
9.973e-09
9.97296e-09
9.97294e-09
9.97294e-09
9.97295e-09
9.973e-09
9.97306e-09
9.9731e-09
9.97304e-09
9.9729e-09
9.97273e-09
9.97265e-09
9.97269e-09
9.97267e-09
9.97249e-09
9.9722e-09
9.97187e-09
9.97184e-09
9.97215e-09
9.97225e-09
9.97199e-09
9.97163e-09
9.97159e-09
9.97207e-09
9.9722e-09
9.97193e-09
9.97183e-09
9.9722e-09
9.97218e-09
9.97175e-09
9.97161e-09
9.9716e-09
9.97307e-09
9.97086e-09
9.98386e-09
9.97365e-09
1.00056e-08
1.00066e-08
1.00082e-08
1.00114e-08
1.00173e-08
1.00268e-08
1.00415e-08
1.00622e-08
1.00888e-08
1.01209e-08
1.01571e-08
1.01957e-08
1.02353e-08
1.0274e-08
1.03104e-08
1.03434e-08
1.03733e-08
1.03997e-08
1.04224e-08
1.04423e-08
1.04595e-08
1.04745e-08
1.04861e-08
1.04946e-08
1.05037e-08
1.0516e-08
1.05319e-08
1.05478e-08
1.05571e-08
1.05625e-08
1.057e-08
1.05809e-08
1.05931e-08
1.06003e-08
1.06059e-08
1.0616e-08
1.06307e-08
1.0646e-08
1.06553e-08
1.06563e-08
1.06545e-08
1.06551e-08
1.06574e-08
1.06572e-08
1.06544e-08
1.0654e-08
1.06589e-08
1.06653e-08
1.06661e-08
1.06588e-08
1.06474e-08
1.06362e-08
1.06278e-08
1.06236e-08
1.06213e-08
1.06166e-08
1.06067e-08
1.05953e-08
1.05865e-08
1.0579e-08
1.05714e-08
1.05674e-08
1.05757e-08
1.06027e-08
1.06399e-08
1.06738e-08
1.07035e-08
1.07415e-08
1.07998e-08
1.08707e-08
1.09402e-08
1.10107e-08
1.10913e-08
1.12492e-08
1.15152e-08
1.19447e-08
1.25696e-08
1.35114e-08
1.48461e-08
1.58497e-08
1.66218e-08
1.65903e-08
1.58059e-08
1.46113e-08
1.31867e-08
1.19412e-08
1.10883e-08
1.0544e-08
1.02634e-08
1.01429e-08
1.00968e-08
1.00768e-08
1.00707e-08
1.00697e-08
1.00756e-08
1.00927e-08
1.01289e-08
1.01683e-08
1.02552e-08
1.03913e-08
1.0416e-08
1.03467e-08
1.02418e-08
1.01665e-08
1.01091e-08
1.00698e-08
1.00527e-08
1.00473e-08
1.00424e-08
1.00387e-08
1.00379e-08
1.00382e-08
1.00386e-08
1.00397e-08
1.00421e-08
1.00455e-08
1.00615e-08
1.00807e-08
1.00765e-08
1.0068e-08
1.00599e-08
1.00524e-08
1.00435e-08
1.00389e-08
1.00368e-08
1.00349e-08
1.00331e-08
1.00327e-08
1.00329e-08
1.00327e-08
1.00321e-08
1.00319e-08
1.00323e-08
1.00327e-08
1.00324e-08
1.00321e-08
1.00326e-08
1.0033e-08
1.00329e-08
1.00327e-08
1.00332e-08
1.00336e-08
1.00336e-08
1.00337e-08
1.00342e-08
1.00343e-08
1.0034e-08
1.00337e-08
1.00344e-08
1.00348e-08
1.00349e-08
1.00352e-08
1.00346e-08
1.00338e-08
1.00343e-08
1.00353e-08
1.00353e-08
1.00344e-08
1.00339e-08
1.00346e-08
1.00353e-08
1.00348e-08
1.00339e-08
1.00341e-08
1.0035e-08
1.0035e-08
1.00341e-08
1.00337e-08
1.00343e-08
1.00349e-08
1.00341e-08
1.0033e-08
1.00333e-08
1.00341e-08
1.00337e-08
1.0033e-08
1.00327e-08
1.00327e-08
1.00325e-08
1.00323e-08
1.00322e-08
1.00317e-08
1.00315e-08
1.00316e-08
1.00312e-08
1.00306e-08
1.00299e-08
1.003e-08
1.003e-08
1.00297e-08
1.00291e-08
1.00289e-08
1.00287e-08
1.00282e-08
1.00277e-08
1.00274e-08
1.00274e-08
1.00271e-08
1.00264e-08
1.00259e-08
1.00258e-08
1.00257e-08
1.00255e-08
1.00249e-08
1.00244e-08
1.00241e-08
1.00239e-08
1.00239e-08
1.00234e-08
1.00229e-08
1.00227e-08
1.00226e-08
1.00222e-08
1.00219e-08
1.00216e-08
1.00212e-08
1.00212e-08
1.0021e-08
1.00208e-08
1.00206e-08
1.00202e-08
1.00199e-08
1.00198e-08
1.00197e-08
1.00195e-08
1.00193e-08
1.00191e-08
1.0019e-08
1.00187e-08
1.00186e-08
1.00185e-08
1.00184e-08
1.00183e-08
1.00181e-08
1.00179e-08
1.00177e-08
1.00176e-08
1.00176e-08
1.00175e-08
1.00174e-08
1.00171e-08
1.00169e-08
1.00169e-08
1.00168e-08
1.00167e-08
1.00164e-08
1.00165e-08
1.00166e-08
1.00163e-08
1.00161e-08
1.00161e-08
1.00161e-08
1.0016e-08
1.00159e-08
1.00159e-08
1.00158e-08
1.00157e-08
1.00157e-08
1.00157e-08
1.00157e-08
1.00155e-08
1.00154e-08
1.00154e-08
1.00154e-08
1.00153e-08
1.00152e-08
1.00152e-08
1.00152e-08
1.00151e-08
1.0015e-08
1.0015e-08
1.00149e-08
1.00149e-08
1.00148e-08
1.00147e-08
1.00147e-08
1.00146e-08
1.00146e-08
1.00145e-08
1.00145e-08
1.00144e-08
1.00144e-08
1.00143e-08
1.00142e-08
1.00142e-08
1.00141e-08
1.0014e-08
1.0014e-08
1.00139e-08
1.00139e-08
1.00138e-08
1.00137e-08
1.00137e-08
1.00136e-08
1.00135e-08
1.00135e-08
1.00134e-08
1.00133e-08
1.00133e-08
1.00132e-08
1.00131e-08
1.00131e-08
1.0013e-08
1.00129e-08
1.00129e-08
1.00128e-08
1.00127e-08
1.00127e-08
1.00126e-08
1.00125e-08
1.00125e-08
1.00124e-08
1.00123e-08
1.00123e-08
1.00122e-08
1.00121e-08
1.00121e-08
1.0012e-08
1.00119e-08
1.00119e-08
1.00118e-08
1.00117e-08
1.00116e-08
1.00116e-08
1.00115e-08
1.00115e-08
1.00114e-08
1.00113e-08
1.00112e-08
1.00112e-08
1.00111e-08
1.00111e-08
1.0011e-08
1.00109e-08
1.00109e-08
1.00109e-08
1.00109e-08
1.00109e-08
1.00109e-08
1.00109e-08
1.00109e-08
1.0011e-08
1.0011e-08
1.0011e-08
1.0011e-08
1.00109e-08
1.00109e-08
1.00108e-08
1.00108e-08
1.00107e-08
1.00106e-08
1.00106e-08
1.00105e-08
1.00105e-08
1.00104e-08
1.00103e-08
1.00103e-08
1.00102e-08
1.00102e-08
1.00101e-08
1.001e-08
1.001e-08
1.00099e-08
1.00099e-08
1.00098e-08
1.00098e-08
1.00097e-08
1.00096e-08
1.00096e-08
1.00095e-08
1.00095e-08
1.00094e-08
1.00094e-08
1.00093e-08
1.00093e-08
1.00092e-08
1.00092e-08
1.00091e-08
1.00091e-08
1.0009e-08
1.0009e-08
1.00089e-08
1.00089e-08
1.00088e-08
1.00088e-08
1.00087e-08
1.00087e-08
1.00086e-08
1.00086e-08
1.00085e-08
1.00085e-08
1.00084e-08
1.00084e-08
1.00083e-08
1.00083e-08
1.00082e-08
1.00082e-08
1.00081e-08
1.0008e-08
1.0008e-08
1.00079e-08
1.00079e-08
1.00078e-08
1.00078e-08
1.00077e-08
1.00077e-08
1.00076e-08
1.00075e-08
1.00075e-08
1.00074e-08
1.00073e-08
1.00073e-08
1.00072e-08
1.00072e-08
1.00071e-08
1.0007e-08
1.0007e-08
1.0007e-08
1.00069e-08
1.00067e-08
1.00066e-08
1.00065e-08
1.00062e-08
1.00045e-08
1.00046e-08
1.00062e-08
1.00061e-08
1.00062e-08
1.00062e-08
1.00062e-08
1.00061e-08
1.00059e-08
1.00059e-08
1.00058e-08
1.00058e-08
1.00057e-08
1.00055e-08
1.00054e-08
1.00053e-08
1.00052e-08
1.00051e-08
1.00043e-08
1.00043e-08
1.0005e-08
1.00049e-08
1.00049e-08
1.00048e-08
1.00049e-08
1.00048e-08
1.00048e-08
1.00046e-08
1.00043e-08
1.0004e-08
1.00044e-08
1.00039e-08
1.00037e-08
1.00051e-08
1.00046e-08
1.00045e-08
1.00038e-08
1.00067e-08
1.00067e-08
1.00088e-08
1.00087e-08
1.00057e-08
1.00062e-08
1.00059e-08
1.00056e-08
1.00052e-08
1.00044e-08
1.00031e-08
1.00024e-08
1.00022e-08
1.00018e-08
1.00012e-08
1.00007e-08
1.00003e-08
9.99984e-09
9.99956e-09
9.99949e-09
9.99953e-09
9.99959e-09
9.9997e-09
9.99987e-09
1.00001e-08
1.00004e-08
1.00006e-08
1.00009e-08
1.0001e-08
1.00012e-08
1.00013e-08
1.00013e-08
1.00013e-08
1.00014e-08
1.00015e-08
1.00016e-08
1.00017e-08
1.00018e-08
1.00019e-08
1.00019e-08
1.00019e-08
1.00019e-08
1.00018e-08
1.00018e-08
1.00018e-08
1.00018e-08
1.00019e-08
1.0002e-08
1.00021e-08
1.00021e-08
1.0002e-08
1.0002e-08
1.00019e-08
1.00019e-08
1.00019e-08
1.00019e-08
1.00018e-08
1.00017e-08
1.00017e-08
1.00017e-08
1.00018e-08
1.00019e-08
1.00019e-08
1.00019e-08
1.00018e-08
1.00016e-08
1.00014e-08
1.00012e-08
1.0001e-08
1.00011e-08
1.00013e-08
1.00016e-08
1.00015e-08
1.0001e-08
1.00009e-08
1.00011e-08
1.00017e-08
1.00015e-08
1.00008e-08
1.00007e-08
1.00009e-08
1.00012e-08
1.00006e-08
1.00006e-08
1.00008e-08
1.0001e-08
1.00012e-08
1e-08
1.00044e-08
1.00016e-08
1.0005e-08
1.00056e-08
1.00063e-08
1.00074e-08
1.00092e-08
1.00116e-08
1.00152e-08
1.00199e-08
1.00258e-08
1.00325e-08
1.00398e-08
1.00472e-08
1.00545e-08
1.00614e-08
1.00677e-08
1.00731e-08
1.00778e-08
1.00819e-08
1.00852e-08
1.00881e-08
1.00906e-08
1.00926e-08
1.00943e-08
1.00956e-08
1.00969e-08
1.00985e-08
1.01004e-08
1.01021e-08
1.01033e-08
1.01041e-08
1.01051e-08
1.01064e-08
1.01077e-08
1.01086e-08
1.01095e-08
1.01111e-08
1.01133e-08
1.01157e-08
1.01174e-08
1.01178e-08
1.01175e-08
1.01172e-08
1.0117e-08
1.01167e-08
1.01161e-08
1.01158e-08
1.0116e-08
1.01162e-08
1.01159e-08
1.01149e-08
1.01134e-08
1.01118e-08
1.01104e-08
1.01094e-08
1.01088e-08
1.0108e-08
1.01065e-08
1.01046e-08
1.01027e-08
1.01008e-08
1.00989e-08
1.00976e-08
1.00982e-08
1.01014e-08
1.0106e-08
1.01107e-08
1.01161e-08
1.01239e-08
1.01345e-08
1.0147e-08
1.01598e-08
1.01739e-08
1.01908e-08
1.02181e-08
1.02657e-08
1.0345e-08
1.04774e-08
1.06715e-08
1.0993e-08
1.13401e-08
1.17824e-08
1.21559e-08
1.22467e-08
1.21072e-08
1.17378e-08
1.12927e-08
1.08862e-08
1.05641e-08
1.03372e-08
1.01965e-08
1.01241e-08
1.00838e-08
1.00602e-08
1.00452e-08
1.00364e-08
1.00323e-08
1.00313e-08
1.00321e-08
1.00366e-08
1.0046e-08
1.00506e-08
1.00506e-08
1.00476e-08
1.00426e-08
1.00375e-08
1.00333e-08
1.00306e-08
1.00292e-08
1.00284e-08
1.00282e-08
1.00278e-08
1.00271e-08
1.00261e-08
1.00255e-08
1.0025e-08
1.00248e-08
1.00248e-08
1.00251e-08
1.0025e-08
1.00252e-08
1.00253e-08
1.00251e-08
1.0025e-08
1.00249e-08
1.00249e-08
1.00251e-08
1.00254e-08
1.0025e-08
1.00243e-08
1.00236e-08
1.00232e-08
1.00228e-08
1.00226e-08
1.00224e-08
1.00222e-08
1.0022e-08
1.0022e-08
1.00219e-08
1.00219e-08
1.00219e-08
1.00219e-08
1.00218e-08
1.00217e-08
1.00216e-08
1.00216e-08
1.00215e-08
1.00214e-08
1.00213e-08
1.00213e-08
1.00212e-08
1.00212e-08
1.00212e-08
1.00211e-08
1.00211e-08
1.00211e-08
1.00212e-08
1.00212e-08
1.00211e-08
1.00211e-08
1.00211e-08
1.00211e-08
1.00211e-08
1.0021e-08
1.0021e-08
1.0021e-08
1.00209e-08
1.00209e-08
1.00208e-08
1.00207e-08
1.00207e-08
1.00206e-08
1.00205e-08
1.00204e-08
1.00204e-08
1.00204e-08
1.00203e-08
1.00202e-08
1.00202e-08
1.00201e-08
1.002e-08
1.00199e-08
1.00199e-08
1.00198e-08
1.00197e-08
1.00196e-08
1.00196e-08
1.00195e-08
1.00194e-08
1.00194e-08
1.00193e-08
1.00192e-08
1.00192e-08
1.00191e-08
1.0019e-08
1.00189e-08
1.00189e-08
1.00188e-08
1.00188e-08
1.00187e-08
1.00186e-08
1.00186e-08
1.00185e-08
1.00185e-08
1.00184e-08
1.00183e-08
1.00183e-08
1.00182e-08
1.00182e-08
1.00181e-08
1.0018e-08
1.0018e-08
1.00179e-08
1.00179e-08
1.00178e-08
1.00177e-08
1.00177e-08
1.00176e-08
1.00176e-08
1.00175e-08
1.00174e-08
1.00174e-08
1.00173e-08
1.00172e-08
1.00172e-08
1.00171e-08
1.0017e-08
1.0017e-08
1.00169e-08
1.00169e-08
1.00168e-08
1.00168e-08
1.00167e-08
1.00166e-08
1.00166e-08
1.00165e-08
1.00164e-08
1.00163e-08
1.00163e-08
1.00163e-08
1.00162e-08
1.0016e-08
1.00159e-08
1.00159e-08
1.00159e-08
1.00157e-08
1.00155e-08
1.00155e-08
1.00156e-08
1.00154e-08
1.00152e-08
1.00152e-08
1.00152e-08
1.00151e-08
1.0015e-08
1.00149e-08
1.00149e-08
1.00148e-08
1.00147e-08
1.00148e-08
1.00147e-08
1.00146e-08
1.00145e-08
1.00145e-08
1.00144e-08
1.00144e-08
1.00144e-08
1.00143e-08
1.00143e-08
1.00142e-08
1.00141e-08
1.00141e-08
1.00141e-08
1.00141e-08
1.00139e-08
1.00139e-08
1.00139e-08
1.00138e-08
1.00137e-08
1.00137e-08
1.00136e-08
1.00136e-08
1.00136e-08
1.00135e-08
1.00134e-08
1.00134e-08
1.00133e-08
1.00133e-08
1.00132e-08
1.00132e-08
1.00131e-08
1.00131e-08
1.0013e-08
1.0013e-08
1.00129e-08
1.00129e-08
1.00128e-08
1.00127e-08
1.00127e-08
1.00126e-08
1.00126e-08
1.00125e-08
1.00125e-08
1.00124e-08
1.00123e-08
1.00123e-08
1.00122e-08
1.00122e-08
1.00121e-08
1.0012e-08
1.0012e-08
1.00119e-08
1.00119e-08
1.00118e-08
1.00117e-08
1.00117e-08
1.00116e-08
1.00116e-08
1.00115e-08
1.00115e-08
1.00114e-08
1.00114e-08
1.00113e-08
1.00113e-08
1.00112e-08
1.00112e-08
1.00111e-08
1.00111e-08
1.0011e-08
1.0011e-08
1.00109e-08
1.00109e-08
1.00108e-08
1.00108e-08
1.00107e-08
1.00107e-08
1.00106e-08
1.00106e-08
1.00106e-08
1.00106e-08
1.00106e-08
1.00105e-08
1.00105e-08
1.00105e-08
1.00105e-08
1.00105e-08
1.00104e-08
1.00104e-08
1.00103e-08
1.00102e-08
1.00102e-08
1.00101e-08
1.001e-08
1.001e-08
1.00099e-08
1.00099e-08
1.00098e-08
1.00098e-08
1.00097e-08
1.00096e-08
1.00096e-08
1.00095e-08
1.00095e-08
1.00094e-08
1.00094e-08
1.00093e-08
1.00093e-08
1.00092e-08
1.00092e-08
1.00091e-08
1.00091e-08
1.0009e-08
1.0009e-08
1.00089e-08
1.00089e-08
1.00088e-08
1.00088e-08
1.00087e-08
1.00087e-08
1.00086e-08
1.00086e-08
1.00085e-08
1.00085e-08
1.00084e-08
1.00084e-08
1.00083e-08
1.00083e-08
1.00083e-08
1.00082e-08
1.00082e-08
1.00081e-08
1.0008e-08
1.0008e-08
1.0008e-08
1.00079e-08
1.00079e-08
1.00078e-08
1.00078e-08
1.00077e-08
1.00077e-08
1.00076e-08
1.00076e-08
1.00075e-08
1.00075e-08
1.00074e-08
1.00074e-08
1.00073e-08
1.00073e-08
1.00072e-08
1.00071e-08
1.00071e-08
1.0007e-08
1.0007e-08
1.00069e-08
1.00069e-08
1.00068e-08
1.00068e-08
1.00066e-08
1.00065e-08
1.00065e-08
1.00063e-08
1.00049e-08
1.00049e-08
1.00062e-08
1.00062e-08
1.00062e-08
1.00062e-08
1.00062e-08
1.00061e-08
1.0006e-08
1.0006e-08
1.00059e-08
1.00058e-08
1.00057e-08
1.00056e-08
1.00055e-08
1.00055e-08
1.00053e-08
1.00052e-08
1.00048e-08
1.00048e-08
1.00051e-08
1.00051e-08
1.00051e-08
1.0005e-08
1.00051e-08
1.00049e-08
1.00049e-08
1.00048e-08
1.00044e-08
1.00043e-08
1.00049e-08
1.00047e-08
1.00055e-08
1.0005e-08
1.00034e-08
1.00044e-08
1.00038e-08
1.00066e-08
1.00066e-08
1.00089e-08
1.00087e-08
1.00061e-08
1.00067e-08
1.00064e-08
1.00063e-08
1.00061e-08
1.0006e-08
1.00055e-08
1.00052e-08
1.00048e-08
1.00043e-08
1.0004e-08
1.00036e-08
1.00031e-08
1.00027e-08
1.00024e-08
1.0002e-08
1.00017e-08
1.00014e-08
1.00012e-08
1.0001e-08
1.00009e-08
1.00009e-08
1.0001e-08
1.00011e-08
1.00013e-08
1.00014e-08
1.00015e-08
1.00016e-08
1.00017e-08
1.00017e-08
1.00018e-08
1.00018e-08
1.00019e-08
1.0002e-08
1.00021e-08
1.00022e-08
1.00023e-08
1.00023e-08
1.00023e-08
1.00022e-08
1.00021e-08
1.00021e-08
1.0002e-08
1.00021e-08
1.00021e-08
1.00022e-08
1.00023e-08
1.00024e-08
1.00024e-08
1.00023e-08
1.00023e-08
1.00022e-08
1.00022e-08
1.00022e-08
1.00022e-08
1.00021e-08
1.0002e-08
1.00019e-08
1.0002e-08
1.00021e-08
1.00022e-08
1.00023e-08
1.00022e-08
1.0002e-08
1.00017e-08
1.00015e-08
1.00014e-08
1.00015e-08
1.00016e-08
1.00018e-08
1.00019e-08
1.00015e-08
1.00013e-08
1.00014e-08
1.0002e-08
1.00021e-08
1.00014e-08
1.00012e-08
1.00012e-08
1.00014e-08
1.00012e-08
1.00012e-08
1.00012e-08
1.00015e-08
1.00017e-08
1.00016e-08
1.00005e-08
1.00048e-08
1.00022e-08
1.0005e-08
1.00054e-08
1.0006e-08
1.00068e-08
1.00081e-08
1.00098e-08
1.00121e-08
1.00151e-08
1.00187e-08
1.00226e-08
1.00266e-08
1.00304e-08
1.00338e-08
1.00368e-08
1.00392e-08
1.00411e-08
1.00425e-08
1.00435e-08
1.00442e-08
1.00446e-08
1.00449e-08
1.00451e-08
1.00453e-08
1.00453e-08
1.00454e-08
1.00455e-08
1.00456e-08
1.00457e-08
1.00457e-08
1.00457e-08
1.00457e-08
1.00457e-08
1.00457e-08
1.00456e-08
1.00456e-08
1.00456e-08
1.00456e-08
1.00457e-08
1.00458e-08
1.00457e-08
1.00455e-08
1.00453e-08
1.00452e-08
1.00451e-08
1.0045e-08
1.0045e-08
1.00451e-08
1.00451e-08
1.0045e-08
1.00449e-08
1.00446e-08
1.00442e-08
1.00438e-08
1.00434e-08
1.0043e-08
1.00426e-08
1.00422e-08
1.00416e-08
1.00411e-08
1.00405e-08
1.004e-08
1.00395e-08
1.00393e-08
1.00394e-08
1.00396e-08
1.00399e-08
1.00404e-08
1.00414e-08
1.00428e-08
1.00443e-08
1.00462e-08
1.00485e-08
1.00515e-08
1.00555e-08
1.00624e-08
1.00748e-08
1.00968e-08
1.01298e-08
1.01866e-08
1.0268e-08
1.03855e-08
1.05168e-08
1.0593e-08
1.06349e-08
1.06074e-08
1.05231e-08
1.04163e-08
1.03102e-08
1.02184e-08
1.015e-08
1.011e-08
1.0093e-08
1.00851e-08
1.00776e-08
1.00653e-08
1.00517e-08
1.00405e-08
1.00331e-08
1.0029e-08
1.00272e-08
1.00264e-08
1.00261e-08
1.00259e-08
1.00256e-08
1.00253e-08
1.00251e-08
1.0025e-08
1.0025e-08
1.00252e-08
1.00256e-08
1.00258e-08
1.00263e-08
1.00269e-08
1.00268e-08
1.00261e-08
1.00253e-08
1.00247e-08
1.00242e-08
1.00238e-08
1.00235e-08
1.00234e-08
1.00233e-08
1.00233e-08
1.00233e-08
1.00234e-08
1.00235e-08
1.00237e-08
1.00239e-08
1.00245e-08
1.00249e-08
1.00245e-08
1.00238e-08
1.00231e-08
1.00227e-08
1.00223e-08
1.00219e-08
1.00217e-08
1.00216e-08
1.00215e-08
1.00215e-08
1.00215e-08
1.00214e-08
1.00213e-08
1.00212e-08
1.00212e-08
1.00211e-08
1.0021e-08
1.00209e-08
1.00209e-08
1.00208e-08
1.00208e-08
1.00208e-08
1.00207e-08
1.00207e-08
1.00207e-08
1.00207e-08
1.00207e-08
1.00207e-08
1.00207e-08
1.00207e-08
1.00206e-08
1.00206e-08
1.00206e-08
1.00206e-08
1.00205e-08
1.00205e-08
1.00205e-08
1.00204e-08
1.00203e-08
1.00203e-08
1.00202e-08
1.00202e-08
1.00201e-08
1.002e-08
1.002e-08
1.002e-08
1.00199e-08
1.00198e-08
1.00198e-08
1.00197e-08
1.00196e-08
1.00196e-08
1.00195e-08
1.00194e-08
1.00194e-08
1.00193e-08
1.00192e-08
1.00192e-08
1.00191e-08
1.00191e-08
1.0019e-08
1.0019e-08
1.00189e-08
1.00189e-08
1.00188e-08
1.00187e-08
1.00187e-08
1.00186e-08
1.00186e-08
1.00185e-08
1.00184e-08
1.00184e-08
1.00183e-08
1.00183e-08
1.00182e-08
1.00182e-08
1.00181e-08
1.0018e-08
1.0018e-08
1.00179e-08
1.00179e-08
1.00178e-08
1.00177e-08
1.00177e-08
1.00176e-08
1.00175e-08
1.00175e-08
1.00174e-08
1.00174e-08
1.00173e-08
1.00172e-08
1.00172e-08
1.00171e-08
1.0017e-08
1.0017e-08
1.00169e-08
1.00169e-08
1.00168e-08
1.00167e-08
1.00167e-08
1.00166e-08
1.00166e-08
1.00165e-08
1.00165e-08
1.00164e-08
1.00164e-08
1.00163e-08
1.00163e-08
1.00162e-08
1.00162e-08
1.00161e-08
1.0016e-08
1.0016e-08
1.00159e-08
1.00158e-08
1.00157e-08
1.00157e-08
1.00156e-08
1.00154e-08
1.00153e-08
1.00153e-08
1.00152e-08
1.00152e-08