/*--------------------------------*- C++ -*----------------------------------*\
| =========                 |                                                 |
| \\      /  F ield         | OpenFOAM: The Open Source CFD Toolbox           |
|  \\    /   O peration     | Version:  v2006                                 |
|   \\  /    A nd           | Website:  www.openfoam.com                      |
|    \\/     M anipulation  |                                                 |
\*---------------------------------------------------------------------------*/
FoamFile
{
    version     2.0;
    format      ascii;
    class       volScalarField;
    location    "3.2";
    object      nut;
}
// * * * * * * * * * * * * * * * * * * * * * * * * * * * * * * * * * * * * * //

dimensions      [0 2 -1 0 0 0 0];


internalField   nonuniform List<scalar> 
33000
(
6.77653e-10
4.50922e-10
5.64402e-10
5.91717e-10
6.63228e-10
7.38923e-10
8.45684e-10
9.80883e-10
1.15576e-09
1.37465e-09
1.63122e-09
1.9109e-09
2.20828e-09
2.52832e-09
2.85049e-09
3.17303e-09
3.50944e-09
3.85814e-09
4.2137e-09
4.61301e-09
5.04914e-09
5.50684e-09
5.94282e-09
6.38402e-09
6.91952e-09
7.79981e-09
9.084e-09
1.04507e-08
1.15111e-08
1.27268e-08
1.48536e-08
1.80153e-08
2.13232e-08
2.32467e-08
2.41945e-08
2.5041e-08
2.43855e-08
2.18805e-08
1.83201e-08
1.50406e-08
1.28094e-08
1.16049e-08
1.0967e-08
1.00633e-08
8.98813e-09
8.00451e-09
7.36317e-09
7.04815e-09
6.76594e-09
6.38996e-09
6.01857e-09
5.66972e-09
5.33252e-09
5.05e-09
4.85321e-09
4.70713e-09
4.52876e-09
4.33035e-09
4.14647e-09
4.01525e-09
3.90821e-09
3.78731e-09
3.64686e-09
3.53473e-09
3.46705e-09
3.42532e-09
3.37528e-09
3.29898e-09
3.24306e-09
3.20096e-09
3.17688e-09
3.14401e-09
3.13163e-09
3.0726e-09
3.03614e-09
2.98483e-09
2.83375e-09
2.92574e-09
3.75257e-09
3.69408e-09
3.84194e-09
4.18373e-09
3.80406e-09
4.47336e-09
4.59384e-09
4.60728e-09
4.84468e-09
4.88049e-09
4.64359e-09
4.51683e-09
4.57324e-09
4.48832e-09
4.45895e-09
4.42729e-09
4.34332e-09
4.24102e-09
4.14679e-09
4.02525e-09
3.84237e-09
4.31091e-09
5.3701e-09
6.17497e-09
5.72658e-09
5.30105e-09
5.88441e-09
6.26988e-09
6.6348e-09
6.78627e-09
6.67774e-09
6.08269e-09
5.65933e-09
5.50272e-09
5.39725e-09
5.31846e-09
5.20445e-09
4.99741e-09
4.80654e-09
5.35108e-09
5.98443e-09
5.92455e-09
5.64738e-09
5.43355e-09
5.66272e-09
5.66879e-09
5.74967e-09
5.70765e-09
5.49398e-09
5.34867e-09
5.28721e-09
5.2369e-09
5.20236e-09
5.16063e-09
5.10474e-09
5.05676e-09
5.01741e-09
4.98592e-09
4.95377e-09
4.92262e-09
4.89698e-09
4.86996e-09
4.84396e-09
4.82268e-09
4.80693e-09
4.79066e-09
4.77551e-09
4.76576e-09
4.75919e-09
4.75651e-09
4.75427e-09
4.75438e-09
4.75867e-09
4.76604e-09
4.77846e-09
4.79173e-09
4.80352e-09
4.82034e-09
4.8447e-09
4.87154e-09
4.89665e-09
4.9219e-09
4.9545e-09
4.99401e-09
5.0327e-09
5.06859e-09
5.11089e-09
5.16158e-09
5.21142e-09
5.25905e-09
5.30984e-09
5.36981e-09
5.436e-09
5.4984e-09
5.55794e-09
5.62794e-09
5.70877e-09
5.78824e-09
5.86706e-09
5.95014e-09
6.04053e-09
6.13554e-09
6.23683e-09
6.34084e-09
6.44234e-09
6.55278e-09
6.67419e-09
6.80193e-09
6.92163e-09
7.04123e-09
7.18104e-09
7.32971e-09
7.47288e-09
7.61447e-09
7.771e-09
7.93593e-09
8.10372e-09
8.26755e-09
8.43548e-09
8.62109e-09
8.81426e-09
8.99326e-09
9.17435e-09
9.37483e-09
9.59148e-09
9.81283e-09
1.00244e-08
1.02398e-08
1.04479e-08
1.06915e-08
1.09587e-08
1.12117e-08
1.14426e-08
1.17039e-08
1.19991e-08
1.22851e-08
1.25883e-08
1.2853e-08
1.31457e-08
1.34947e-08
1.38215e-08
1.41981e-08
1.45642e-08
1.48801e-08
1.52417e-08
1.56643e-08
1.60972e-08
1.65082e-08
1.69706e-08
1.7465e-08
1.79006e-08
1.83696e-08
1.89432e-08
1.9523e-08
2.01215e-08
2.0777e-08
2.13349e-08
2.19739e-08
2.2789e-08
2.36219e-08
2.44226e-08
2.52665e-08
2.62692e-08
2.69587e-08
2.68598e-08
2.67611e-08
2.66639e-08
2.65656e-08
2.64728e-08
2.63812e-08
2.62856e-08
2.61941e-08
2.61044e-08
2.60152e-08
2.5928e-08
2.58422e-08
2.57584e-08
2.56777e-08
2.55957e-08
2.55125e-08
2.54363e-08
2.53613e-08
2.52862e-08
2.52097e-08
2.51366e-08
2.507e-08
2.50023e-08
2.49382e-08
2.48757e-08
2.48138e-08
2.47497e-08
2.46897e-08
2.46324e-08
2.45739e-08
2.45144e-08
2.4452e-08
2.43887e-08
2.4323e-08
2.42554e-08
2.41882e-08
2.41194e-08
2.40496e-08
2.39784e-08
2.39082e-08
2.38351e-08
2.37589e-08
2.36818e-08
2.36024e-08
2.35226e-08
2.34423e-08
2.336e-08
2.32762e-08
2.31907e-08
2.31026e-08
2.30145e-08
2.29263e-08
2.28365e-08
2.27462e-08
2.26548e-08
2.25626e-08
2.24701e-08
2.23769e-08
2.22829e-08
2.21883e-08
2.2093e-08
2.19972e-08
2.19012e-08
2.18043e-08
2.17065e-08
2.16079e-08
2.15093e-08
2.14104e-08
2.13104e-08
2.12096e-08
2.10588e-08
2.06824e-08
2.03249e-08
1.99865e-08
1.96668e-08
1.93646e-08
1.90762e-08
1.88018e-08
1.85423e-08
1.82966e-08
1.80674e-08
1.78471e-08
1.76353e-08
1.74364e-08
1.72524e-08
1.7078e-08
1.69091e-08
1.67514e-08
1.66026e-08
1.64621e-08
1.63307e-08
1.62077e-08
1.6092e-08
1.59838e-08
1.58824e-08
1.57878e-08
1.56996e-08
1.56185e-08
1.55443e-08
1.54752e-08
1.54111e-08
1.5353e-08
1.53005e-08
1.52542e-08
1.52133e-08
1.51767e-08
1.51446e-08
1.51172e-08
1.50962e-08
1.50796e-08
1.50659e-08
1.5057e-08
1.50525e-08
1.5053e-08
1.50573e-08
1.50653e-08
1.50769e-08
1.50935e-08
1.51142e-08
1.51377e-08
1.51653e-08
1.51968e-08
1.52319e-08
1.52713e-08
1.53141e-08
1.53598e-08
1.54097e-08
1.54625e-08
1.55196e-08
1.54347e-08
1.53437e-08
1.52533e-08
1.51635e-08
1.50744e-08
1.4986e-08
1.48984e-08
1.48116e-08
1.47256e-08
1.46404e-08
1.45558e-08
1.44721e-08
1.43892e-08
1.43073e-08
1.42263e-08
1.41464e-08
1.40674e-08
1.39893e-08
1.39121e-08
1.38358e-08
1.37604e-08
1.36859e-08
1.36124e-08
1.354e-08
1.34685e-08
1.3398e-08
1.33285e-08
1.326e-08
1.31923e-08
1.31256e-08
1.30597e-08
1.29947e-08
1.29308e-08
1.28679e-08
1.2806e-08
1.27451e-08
1.26851e-08
1.26261e-08
1.25681e-08
1.2511e-08
1.2455e-08
1.23999e-08
1.23455e-08
1.22924e-08
1.22395e-08
1.21876e-08
1.21365e-08
1.20853e-08
1.20356e-08
1.19886e-08
1.19391e-08
1.18932e-08
1.18468e-08
1.17917e-08
1.17476e-08
1.17127e-08
1.16583e-08
1.16388e-08
1.15982e-08
1.16244e-08
1.15848e-08
1.15724e-08
1.15374e-08
1.15109e-08
1.14764e-08
1.14459e-08
1.14124e-08
1.13808e-08
1.13475e-08
1.13151e-08
1.12829e-08
1.12482e-08
1.12164e-08
1.11876e-08
1.11528e-08
1.11281e-08
1.1097e-08
1.10844e-08
1.10549e-08
1.10315e-08
1.10048e-08
1.09791e-08
1.0954e-08
1.0929e-08
1.09055e-08
1.08813e-08
1.08541e-08
1.08298e-08
1.08113e-08
1.07811e-08
1.07669e-08
1.07449e-08
1.06842e-08
1.06681e-08
1.06707e-08
1.06026e-08
1.07226e-08
1.06881e-08
1.11472e-08
1.11161e-08
1.1249e-08
1.12991e-08
1.13371e-08
1.13608e-08
1.13754e-08
1.13838e-08
1.13877e-08
1.13881e-08
1.13859e-08
1.13817e-08
1.13758e-08
1.13686e-08
1.13604e-08
1.13513e-08
1.13415e-08
1.1331e-08
1.13198e-08
1.1308e-08
1.12956e-08
1.12827e-08
1.12695e-08
1.12561e-08
1.12425e-08
1.12287e-08
1.12148e-08
1.12007e-08
1.11864e-08
1.11718e-08
1.11568e-08
1.11415e-08
1.11257e-08
1.11094e-08
1.10926e-08
1.10755e-08
1.10582e-08
1.10409e-08
1.10236e-08
1.10065e-08
1.09896e-08
1.0973e-08
1.09566e-08
1.09406e-08
1.09248e-08
1.09093e-08
1.08939e-08
1.08787e-08
1.08635e-08
1.08485e-08
1.08336e-08
1.08189e-08
1.08042e-08
1.07895e-08
1.07749e-08
1.07603e-08
1.07458e-08
1.07317e-08
1.07179e-08
1.07041e-08
1.06901e-08
1.06759e-08
1.06618e-08
1.06479e-08
1.06343e-08
1.06209e-08
1.06073e-08
1.05936e-08
1.05801e-08
1.05671e-08
1.05545e-08
1.05414e-08
1.05283e-08
1.05162e-08
1.05047e-08
1.04919e-08
1.04791e-08
1.04656e-08
1.04388e-08
1.05022e-08
1.03458e-08
1.23759e-09
1.28933e-09
2.14358e-09
5.27649e-09
3.85643e-09
4.77825e-09
4.72474e-09
4.78778e-09
4.56406e-09
4.54605e-09
4.69135e-09
4.74777e-09
4.6388e-09
4.63372e-09
4.74829e-09
4.94387e-09
5.10564e-09
5.20419e-09
5.27801e-09
5.34233e-09
5.37432e-09
5.51034e-09
5.51078e-09
5.5545e-09
5.56923e-09
5.65011e-09
5.80607e-09
5.96491e-09
6.03011e-09
5.84356e-09
5.85656e-09
5.98325e-09
6.47834e-09
6.74433e-09
6.25339e-09
5.87001e-09
6.05203e-09
6.82612e-09
7.9534e-09
7.91816e-09
6.90257e-09
6.55032e-09
6.78007e-09
7.41289e-09
7.71521e-09
7.10598e-09
6.78046e-09
7.26257e-09
8.18838e-09
8.48156e-09
8.05306e-09
7.57029e-09
7.51249e-09
7.88294e-09
8.74579e-09
9.61218e-09
9.47672e-09
9.04768e-09
9.21753e-09
1.00753e-08
1.0867e-08
1.04347e-08
1.01838e-08
1.0884e-08
1.29256e-08
1.58651e-08
1.64862e-08
1.71223e-08
1.8332e-08
2.28624e-08
2.57298e-08
2.42038e-08
2.00411e-08
1.40802e-08
1.02625e-08
7.68978e-09
7.48713e-09
6.6899e-09
8.3239e-09
8.94741e-09
6.30519e-09
8.23045e-09
9.18711e-09
6.89577e-09
6.4239e-09
3.75273e-09
5.71465e-09
2.64798e-08
1.30469e-08
2.61131e-08
4.9744e-08
2.43911e-08
2.0205e-08
2.6002e-08
2.30975e-08
1.53127e-08
1.35328e-08
7.86869e-09
5.83779e-09
5.00577e-09
5.7457e-09
3.43059e-09
2.41631e-09
3.07211e-09
4.10672e-09
6.48597e-09
6.27663e-09
1.30188e-08
1.39664e-08
1.01849e-08
1.70758e-08
2.98817e-08
6.02473e-08
3.29532e-08
2.47691e-08
1.54626e-08
1.28595e-08
1.42955e-08
1.87881e-08
8.46382e-09
6.6802e-09
1.25511e-08
1.86708e-08
2.39666e-08
2.0504e-08
2.40004e-08
2.12956e-08
3.63111e-08
5.14914e-08
6.40003e-08
6.56381e-08
5.76599e-08
5.78605e-08
6.91506e-08
8.26459e-08
9.43099e-08
1.01372e-07
1.09538e-07
1.14813e-07
1.20749e-07
1.40065e-07
1.7651e-07
2.12754e-07
2.56043e-07
3.30543e-07
3.45879e-07
3.47954e-07
3.52763e-07
2.81946e-07
2.13616e-07
1.80792e-07
1.58138e-07
1.42892e-07
1.28668e-07
1.12401e-07
9.8457e-08
9.33845e-08
9.04984e-08
8.51938e-08
7.84428e-08
7.36742e-08
7.07875e-08
6.95475e-08
6.74143e-08
6.33921e-08
6.08756e-08
6.01052e-08
5.97075e-08
5.78416e-08
5.49734e-08
5.41764e-08
5.49757e-08
5.38647e-08
5.14251e-08
5.12324e-08
5.14615e-08
5.04186e-08
4.99432e-08
4.99939e-08
4.989e-08
4.93111e-08
4.88999e-08
4.8559e-08
4.826e-08
4.8488e-08
4.90505e-08
4.9655e-08
4.95075e-08
4.91489e-08
4.90312e-08
4.92224e-08
4.95014e-08
4.97371e-08
5.07056e-08
5.17603e-08
5.18381e-08
5.09398e-08
5.14192e-08
5.31656e-08
5.4341e-08
5.46081e-08
5.42867e-08
5.38536e-08
5.62176e-08
5.78834e-08
5.80498e-08
5.73509e-08
5.74522e-08
6.0102e-08
6.16693e-08
6.11911e-08
6.09597e-08
6.35245e-08
6.46644e-08
6.52475e-08
6.72585e-08
6.70567e-08
6.78763e-08
6.8292e-08
6.91806e-08
7.23538e-08
7.27852e-08
7.42118e-08
7.40774e-08
7.46835e-08
7.71268e-08
7.78172e-08
7.92943e-08
8.13766e-08
8.20886e-08
8.12308e-08
8.34566e-08
8.57395e-08
8.71244e-08
8.96799e-08
9.06085e-08
8.95147e-08
8.76441e-08
8.9803e-08
9.23646e-08
9.59515e-08
9.70716e-08
9.64541e-08
9.8406e-08
1.00827e-07
1.00406e-07
9.77681e-08
1.00417e-07
1.05226e-07
1.05598e-07
1.0561e-07
1.0724e-07
1.07023e-07
1.08916e-07
1.11001e-07
1.11685e-07
1.1175e-07
1.1035e-07
1.12163e-07
1.17567e-07
1.19295e-07
1.19171e-07
1.18598e-07
1.19339e-07
1.2023e-07
1.22751e-07
1.25048e-07
1.28318e-07
1.29806e-07
1.29546e-07
1.303e-07
1.31704e-07
1.34228e-07
1.35416e-07
1.35672e-07
1.39353e-07
1.42293e-07
1.44691e-07
1.46009e-07
1.47658e-07
1.4858e-07
1.4883e-07
1.54172e-07
1.57594e-07
1.58736e-07
1.60923e-07
1.63211e-07
1.65289e-07
1.69015e-07
1.71708e-07
1.74877e-07
1.78308e-07
1.80395e-07
1.83504e-07
1.87792e-07
1.90844e-07
1.93529e-07
1.96884e-07
2.01596e-07
2.06263e-07
2.10449e-07
2.15016e-07
2.192e-07
2.2388e-07
2.30811e-07
2.36537e-07
2.42397e-07
2.49259e-07
2.54905e-07
2.63508e-07
2.72021e-07
2.80739e-07
2.90024e-07
3.00166e-07
3.12017e-07
3.24533e-07
3.378e-07
3.51633e-07
3.68138e-07
3.87313e-07
4.07531e-07
4.29704e-07
4.54314e-07
4.80043e-07
5.14555e-07
5.53293e-07
5.9704e-07
6.47321e-07
7.04967e-07
7.7617e-07
8.65952e-07
9.37721e-07
9.39575e-07
9.41307e-07
9.4298e-07
9.44498e-07
9.45786e-07
9.46827e-07
9.47668e-07
9.48335e-07
9.48942e-07
9.49515e-07
9.50098e-07
9.50748e-07
9.51494e-07
9.52299e-07
9.53126e-07
9.54015e-07
9.20632e-07
8.45463e-07
7.86946e-07
7.38453e-07
6.91927e-07
6.54046e-07
6.22012e-07
5.93995e-07
5.69125e-07
5.46439e-07
5.27711e-07
5.12867e-07
4.98521e-07
4.81913e-07
4.69249e-07
4.58841e-07
4.48852e-07
4.40812e-07
4.3335e-07
4.24999e-07
4.18438e-07
4.12706e-07
4.06891e-07
4.01989e-07
3.97813e-07
3.94353e-07
3.90921e-07
3.88097e-07
3.85753e-07
3.8302e-07
3.81111e-07
3.79882e-07
3.78766e-07
3.77994e-07
3.77387e-07
3.77384e-07
3.77933e-07
3.77517e-07
3.77565e-07
3.78059e-07
3.78576e-07
3.79391e-07
3.80457e-07
3.81722e-07
3.83499e-07
3.85277e-07
3.86337e-07
3.87819e-07
3.89649e-07
3.91326e-07
3.93533e-07
3.95422e-07
3.98079e-07
4.00258e-07
4.03296e-07
4.05546e-07
4.09289e-07
4.10892e-07
4.16611e-07
4.19103e-07
4.26276e-07
4.34907e-07
4.39182e-07
4.46267e-07
4.40307e-07
4.46567e-07
4.3631e-07
4.45129e-07
4.78962e-07
4.8143e-07
4.61948e-07
4.65469e-07
3.61635e-07
3.81123e-07
5.45402e-07
5.77954e-07
8.43159e-07
9.44149e-07
4.42465e-07
4.29297e-07
6.54201e-07
5.13483e-07
3.87858e-07
4.8198e-07
5.82611e-07
6.58295e-07
6.67893e-07
6.87954e-07
6.64128e-07
6.54673e-07
5.56966e-07
5.61587e-07
6.72108e-07
6.7778e-07
7.6802e-07
8.06536e-07
9.42e-07
9.41911e-07
6.82221e-07
6.2398e-07
5.44826e-07
6.46537e-07
5.92355e-07
6.60436e-07
5.18216e-07
6.18287e-07
7.03184e-07
8.04986e-07
9.10341e-07
7.73087e-07
7.44006e-07
2.66652e-07
3.02358e-07
2.20803e-07
2.76494e-07
1.10016e-07
1.10722e-07
4.61675e-08
4.40459e-08
9.61625e-08
9.54384e-08
9.12794e-08
1.11119e-07
1.81371e-07
2.50062e-07
3.45757e-07
4.63785e-07
6.10737e-07
7.93582e-07
9.14527e-07
9.21859e-07
9.26978e-07
9.30902e-07
9.33589e-07
9.35356e-07
9.3632e-07
9.36616e-07
9.36944e-07
9.377e-07
9.3871e-07
9.39586e-07
9.4009e-07
9.4018e-07
9.39913e-07
9.39449e-07
9.38958e-07
9.38587e-07
9.38428e-07
9.38505e-07
9.25309e-07
9.02575e-07
8.81648e-07
8.6288e-07
8.46384e-07
8.31961e-07
8.18689e-07
8.05744e-07
7.94491e-07
7.85207e-07
7.78175e-07
7.7476e-07
7.74131e-07
7.76449e-07
7.81561e-07
7.87709e-07
7.92488e-07
7.94392e-07
7.93735e-07
7.91926e-07
7.89755e-07
7.86553e-07
7.81243e-07
7.74772e-07
7.70848e-07
7.73549e-07
7.83167e-07
7.93496e-07
7.96319e-07
7.93005e-07
7.94481e-07
8.08757e-07
8.34433e-07
8.54269e-07
8.39691e-07
8.15071e-07
8.17747e-07
8.46742e-07
8.73826e-07
8.54199e-07
8.14837e-07
8.19263e-07
8.49825e-07
8.53584e-07
8.16514e-07
8.21846e-07
8.64978e-07
8.79224e-07
8.97937e-07
5.35641e-07
4.4108e-07
1.41656e-07
3.00112e-07
1.23346e-09
1.28563e-09
2.13269e-09
5.20842e-09
3.79729e-09
4.64286e-09
4.51846e-09
4.52032e-09
4.28147e-09
4.20222e-09
4.25557e-09
4.24996e-09
4.12249e-09
3.99306e-09
4.0044e-09
4.11036e-09
4.15597e-09
4.16125e-09
4.22218e-09
4.21395e-09
4.22953e-09
4.21249e-09
4.16709e-09
4.27405e-09
4.46945e-09
4.59133e-09
4.51845e-09
4.22403e-09
4.21944e-09
4.32263e-09
4.48891e-09
4.5537e-09
4.6588e-09
4.81786e-09
4.73623e-09
4.29168e-09
4.25988e-09
4.56254e-09
5.2533e-09
5.85934e-09
5.35784e-09
4.84075e-09
4.65972e-09
4.87929e-09
5.3947e-09
5.53256e-09
5.22236e-09
5.02078e-09
5.08433e-09
5.32066e-09
5.5874e-09
5.9092e-09
6.06809e-09
5.86523e-09
6.01586e-09
6.54501e-09
7.00035e-09
7.35699e-09
7.25578e-09
7.46789e-09
7.65788e-09
7.56985e-09
8.22963e-09
8.17302e-09
8.34857e-09
8.83664e-09
9.09281e-09
1.08578e-08
1.04072e-08
1.07684e-08
1.19124e-08
1.29123e-08
1.11889e-08
9.07707e-09
6.93239e-09
6.10401e-09
5.98006e-09
5.52518e-09
6.11995e-09
7.42953e-09
9.00497e-09
1.09158e-08
9.23284e-09
4.80125e-09
4.35508e-09
3.46168e-09
2.24172e-09
2.68862e-09
3.8832e-09
3.40958e-09
9.85715e-09
9.04714e-09
1.15757e-08
1.76655e-08
1.25927e-08
9.83078e-09
1.10684e-08
1.06433e-08
8.10258e-09
7.16356e-09
6.41883e-09
5.43646e-09
3.65062e-09
3.96584e-09
2.46822e-09
2.03209e-09
2.45579e-09
3.14281e-09
4.80433e-09
6.12148e-09
6.07583e-09
9.42509e-09
9.0435e-09
1.82214e-08
3.89201e-08
3.42974e-08
1.65179e-08
1.35981e-08
1.40088e-08
1.54177e-08
1.45464e-08
1.86075e-08
7.6577e-09
6.00077e-09
1.09768e-08
1.53759e-08
2.16697e-08
1.9376e-08
2.58971e-08
2.27833e-08
4.31219e-08
7.01997e-08
9.53503e-08
8.16531e-08
8.28255e-08
7.52284e-08
7.20475e-08
8.50721e-08
1.03844e-07
1.2067e-07
1.34913e-07
1.4996e-07
1.72194e-07
1.96315e-07
2.21477e-07
2.77862e-07
3.09723e-07
2.58654e-07
1.99559e-07
1.76883e-07
1.58359e-07
1.46692e-07
1.35548e-07
1.13232e-07
9.6897e-08
9.14049e-08
9.01241e-08
8.62379e-08
7.86247e-08
7.28433e-08
7.05882e-08
6.79829e-08
6.49157e-08
6.23141e-08
6.03471e-08
5.91185e-08
5.71634e-08
5.58016e-08
5.4561e-08
5.33386e-08
5.23308e-08
5.15055e-08
5.06253e-08
4.96322e-08
4.9603e-08
4.91553e-08
4.78156e-08
4.76478e-08
4.80071e-08
4.79334e-08
4.72769e-08
4.6718e-08
4.638e-08
4.65697e-08
4.70109e-08
4.71608e-08
4.73419e-08
4.72136e-08
4.70628e-08
4.75926e-08
4.74658e-08
4.76719e-08
4.77044e-08
4.87308e-08
5.05138e-08
5.07229e-08
4.95694e-08
4.95949e-08
5.10472e-08
5.22538e-08
5.2646e-08
5.30547e-08
5.34144e-08
5.48562e-08
5.55987e-08
5.49549e-08
5.54844e-08
5.79114e-08
5.97397e-08
5.95532e-08
5.87335e-08
6.04208e-08
6.25069e-08
6.3305e-08
6.33057e-08
6.52068e-08
6.6778e-08
6.66211e-08
6.69971e-08
7.01591e-08
7.09511e-08
6.87205e-08
7.25189e-08
7.51747e-08
7.56137e-08
7.64179e-08
7.62997e-08
7.74673e-08
7.82387e-08
8.12126e-08
8.30304e-08
8.29083e-08
8.41101e-08
8.5567e-08
8.7881e-08
8.89058e-08
8.82965e-08
8.72608e-08
8.94412e-08
9.47284e-08
9.70263e-08
9.54411e-08
9.36283e-08
9.69444e-08
9.97481e-08
9.7397e-08
9.97508e-08
1.03026e-07
1.03393e-07
1.03985e-07
1.03924e-07
1.06361e-07
1.08203e-07
1.09204e-07
1.10267e-07
1.1117e-07
1.08239e-07
1.08002e-07
1.13496e-07
1.18176e-07
1.18192e-07
1.16681e-07
1.18899e-07
1.20729e-07
1.20672e-07
1.2242e-07
1.23722e-07
1.25642e-07
1.26414e-07
1.26472e-07
1.2819e-07
1.32401e-07
1.37634e-07
1.37872e-07
1.33977e-07
1.35489e-07
1.40763e-07
1.44465e-07
1.45415e-07
1.45891e-07
1.48308e-07
1.50994e-07
1.53782e-07
1.55845e-07
1.55957e-07
1.57627e-07
1.63751e-07
1.67858e-07
1.68805e-07
1.69988e-07
1.71777e-07
1.74817e-07
1.7964e-07
1.8409e-07
1.87855e-07
1.90009e-07
1.91981e-07
1.95995e-07
2.01269e-07
2.05356e-07
2.09855e-07
2.14264e-07
2.17856e-07
2.24133e-07
2.30601e-07
2.35218e-07
2.39883e-07
2.47514e-07
2.55172e-07
2.62091e-07
2.69824e-07
2.78118e-07
2.87781e-07
2.98309e-07
3.09102e-07
3.21124e-07
3.34343e-07
3.48805e-07
3.64974e-07
3.82839e-07
4.03226e-07
4.22411e-07
4.45726e-07
4.75487e-07
5.07016e-07
5.41184e-07
5.80264e-07
6.32515e-07
6.8848e-07
7.5512e-07
8.38874e-07
9.33487e-07
1.0457e-06
1.19363e-06
1.38442e-06
1.61026e-06
1.87139e-06
2.1407e-06
2.33391e-06
2.38064e-06
2.25736e-06
1.99707e-06
1.7268e-06
1.50192e-06
1.32266e-06
1.18567e-06
1.07454e-06
9.73778e-07
8.91034e-07
8.26861e-07
7.73107e-07
7.21752e-07
6.79468e-07
6.44541e-07
6.14105e-07
5.87047e-07
5.61473e-07
5.38991e-07
5.22309e-07
5.09706e-07
4.94123e-07
4.78206e-07
4.66372e-07
4.56151e-07
4.46752e-07
4.38499e-07
4.29742e-07
4.22086e-07
4.15933e-07
4.10379e-07
4.05664e-07
4.0106e-07
3.96893e-07
3.93367e-07
3.90249e-07
3.87566e-07
3.84406e-07
3.81534e-07
3.80037e-07
3.79134e-07
3.78584e-07
3.78111e-07
3.77553e-07
3.77157e-07
3.7698e-07
3.76813e-07
3.77133e-07
3.77829e-07
3.78581e-07
3.79545e-07
3.80541e-07
3.82482e-07
3.84278e-07
3.85151e-07
3.86088e-07
3.87727e-07
3.88719e-07
3.90865e-07
3.9305e-07
3.96217e-07
3.98429e-07
4.01397e-07
4.02131e-07
4.05648e-07
4.07526e-07
4.13127e-07
4.21791e-07
4.26186e-07
4.3023e-07
4.30427e-07
4.34953e-07
4.28278e-07
4.37354e-07
4.73981e-07
4.78062e-07
4.51969e-07
4.54824e-07
3.51361e-07
3.75893e-07
5.65224e-07
6.10125e-07
8.87385e-07
9.84471e-07
3.9955e-07
4.34277e-07
8.29336e-07
7.43823e-07
4.80577e-07
4.76582e-07
3.80887e-07
3.93737e-07
5.3578e-07
5.61426e-07
6.08099e-07
5.29251e-07
5.49581e-07
6.84013e-07
6.90136e-07
7.37348e-07
8.01464e-07
8.38963e-07
1.17394e-06
1.20467e-06
7.02437e-07
7.17919e-07
5.83751e-07
6.23282e-07
4.93096e-07
5.39284e-07
4.79645e-07
5.64846e-07
6.46542e-07
8.20712e-07
6.4557e-07
7.79499e-07
7.55948e-07
2.65675e-07
3.14853e-07
2.05487e-07
2.51114e-07
1.0064e-07
9.77726e-08
4.17841e-08
4.21369e-08
1.01063e-07
1.01254e-07
1.01742e-07
1.08125e-07
1.35882e-07
1.77099e-07
2.59967e-07
3.21628e-07
3.67652e-07
4.44837e-07
5.47715e-07
6.78216e-07
8.38963e-07
1.04321e-06
1.28058e-06
1.48518e-06
1.61028e-06
1.67544e-06
1.67539e-06
1.59951e-06
1.4771e-06
1.35436e-06
1.25405e-06
1.17866e-06
1.12368e-06
1.08361e-06
1.05343e-06
1.0279e-06
1.00307e-06
9.77087e-07
9.50125e-07
9.2372e-07
9.00209e-07
8.8043e-07
8.6546e-07
8.56023e-07
8.51511e-07
8.49592e-07
8.47122e-07
8.4211e-07
8.33648e-07
8.22191e-07
8.0985e-07
7.99119e-07
7.92023e-07
7.89622e-07
7.91149e-07
7.93939e-07
7.95013e-07
7.92972e-07
7.89083e-07
7.86465e-07
7.87439e-07
7.91139e-07
7.93687e-07
7.91438e-07
7.84873e-07
7.7859e-07
7.76757e-07
7.80335e-07
7.87437e-07
7.96391e-07
8.09534e-07
8.29219e-07
8.46877e-07
8.44088e-07
8.18085e-07
7.94892e-07
8.06055e-07
8.48575e-07
8.73014e-07
8.37766e-07
7.88081e-07
8.03007e-07
8.76817e-07
9.07365e-07
8.49775e-07
8.3147e-07
9.02921e-07
9.35135e-07
8.6122e-07
8.79863e-07
5.3714e-07
4.36837e-07
1.43254e-07
3.11733e-07
1.22821e-09
1.28201e-09
2.12365e-09
5.14533e-09
3.76014e-09
4.61218e-09
4.46747e-09
4.42621e-09
4.18658e-09
4.0683e-09
4.0708e-09
4.06911e-09
3.97467e-09
3.88261e-09
3.93171e-09
4.04631e-09
4.08965e-09
4.07895e-09
4.11173e-09
4.14852e-09
4.16802e-09
4.10671e-09
4.10818e-09
4.21703e-09
4.36867e-09
4.40157e-09
4.21742e-09
3.96834e-09
4.05016e-09
4.31705e-09
4.41961e-09
4.36973e-09
4.14692e-09
4.16838e-09
4.43382e-09
4.48772e-09
4.36669e-09
4.21687e-09
4.2016e-09
4.45939e-09
4.74185e-09
4.78242e-09
4.5671e-09
4.51409e-09
4.78432e-09
5.17336e-09
5.21652e-09
4.93641e-09
4.67747e-09
4.82777e-09
5.32392e-09
6.0117e-09
6.26019e-09
5.84436e-09
5.55424e-09
5.74681e-09
6.38635e-09
7.19041e-09
7.17288e-09
6.94228e-09
6.83058e-09
6.97773e-09
7.75522e-09
7.65829e-09
7.44747e-09
7.20241e-09
7.53403e-09
8.41495e-09
8.57185e-09
8.43069e-09
8.08393e-09
8.3964e-09
9.37803e-09
8.34947e-09
6.43291e-09
5.0825e-09
4.9309e-09
5.23134e-09
5.21772e-09
5.24533e-09
4.51378e-09
5.95083e-09
6.60552e-09
6.01065e-09
5.53353e-09
3.98377e-09
2.18849e-09
1.30543e-09
1.202e-09
1.41294e-09
1.80814e-09
3.20393e-09
2.84713e-09
6.94886e-09
8.70937e-09
8.14876e-09
1.17245e-08
9.16331e-09
7.45715e-09
9.31583e-09
1.16318e-08
9.91339e-09
7.96246e-09
6.24519e-09
5.69065e-09
4.08386e-09
3.49901e-09
3.28386e-09
2.37981e-09
1.86215e-09
2.53262e-09
3.34127e-09
5.22096e-09
5.552e-09
9.42278e-09
9.23388e-09
1.76945e-08
3.10958e-08
4.1662e-08
2.03301e-08
1.49826e-08
1.51232e-08
1.64675e-08
1.33959e-08
1.66097e-08
7.06098e-09
5.66194e-09
1.01622e-08
1.36542e-08
1.99585e-08
1.87246e-08
2.80675e-08
2.54907e-08
5.37189e-08
1.10005e-07
1.33265e-07
1.38876e-07
8.72757e-08
7.95536e-08
8.24045e-08
1.04474e-07
1.41066e-07
1.60852e-07
1.54273e-07
1.55773e-07
1.88661e-07
2.09457e-07
1.83913e-07
1.6375e-07
1.55725e-07
1.3968e-07
1.31152e-07
1.21436e-07
1.02122e-07
9.09003e-08
8.95329e-08
8.76353e-08
8.17285e-08
7.4431e-08
7.06043e-08
6.99433e-08
6.74361e-08
6.27629e-08
5.96351e-08
5.95907e-08
5.96113e-08
5.66082e-08
5.39153e-08
5.31443e-08
5.38521e-08
5.23477e-08
4.98561e-08
4.99463e-08
5.03624e-08
4.91005e-08
4.77428e-08
4.78543e-08
4.82848e-08
4.74104e-08
4.664e-08
4.66096e-08
4.67118e-08
4.64037e-08
4.66112e-08
4.72209e-08
4.70761e-08
4.64756e-08
4.6261e-08
4.68424e-08
4.77775e-08
4.7597e-08
4.77946e-08
4.79095e-08
4.82928e-08
4.94965e-08
5.06329e-08
5.06587e-08
5.02889e-08
5.01673e-08
5.1464e-08
5.27899e-08
5.35715e-08
5.4428e-08
5.38601e-08
5.38659e-08
5.43845e-08
5.7154e-08
6.07112e-08
5.92032e-08
5.76991e-08
5.91468e-08
6.2224e-08
6.22836e-08
6.23764e-08
6.31682e-08
6.50231e-08
6.64328e-08
6.68736e-08
6.85454e-08
7.08089e-08
7.03881e-08
6.87562e-08
7.13751e-08
7.55533e-08
7.74678e-08
7.76855e-08
7.68821e-08
7.69908e-08
7.69453e-08
7.98863e-08
8.47892e-08
8.39356e-08
8.27654e-08
8.52355e-08
8.86463e-08
8.73122e-08
8.75897e-08
9.03208e-08
9.25801e-08
9.65077e-08
9.56026e-08
9.28861e-08
9.45344e-08
9.69611e-08
9.64566e-08
9.81349e-08
1.04432e-07
1.06331e-07
1.02567e-07
1.01852e-07
1.03796e-07
1.04737e-07
1.08147e-07
1.11001e-07
1.09613e-07
1.08854e-07
1.08518e-07
1.1216e-07
1.16056e-07
1.15797e-07
1.16123e-07
1.16214e-07
1.18485e-07
1.21983e-07
1.23098e-07
1.22969e-07
1.2276e-07
1.23694e-07
1.24131e-07
1.25643e-07
1.28049e-07
1.32468e-07
1.38407e-07
1.39804e-07
1.36013e-07
1.35286e-07
1.38771e-07
1.4213e-07
1.44059e-07
1.45025e-07
1.49488e-07
1.5462e-07
1.52227e-07
1.52844e-07
1.5542e-07
1.58174e-07
1.64555e-07
1.68364e-07
1.66714e-07
1.68271e-07
1.71491e-07
1.73868e-07
1.78699e-07
1.83932e-07
1.86883e-07
1.88636e-07
1.9216e-07
1.96673e-07
2.00399e-07
2.03887e-07
2.08485e-07
2.13169e-07
2.17975e-07
2.24218e-07
2.28293e-07
2.3288e-07
2.38645e-07
2.46682e-07
2.54101e-07
2.5929e-07
2.66407e-07
2.74997e-07
2.85367e-07
2.95519e-07
3.04876e-07
3.16286e-07
3.29958e-07
3.4502e-07
3.58977e-07
3.74535e-07
3.94892e-07
4.13588e-07
4.36518e-07
4.65407e-07
4.91378e-07
5.23287e-07
5.62475e-07
6.08248e-07
6.57715e-07
7.15711e-07
7.84751e-07
8.63567e-07
9.52303e-07
1.06125e-06
1.19087e-06
1.32725e-06
1.46339e-06
1.58887e-06
1.67591e-06
1.6988e-06
1.65968e-06
1.55601e-06
1.41802e-06
1.2867e-06
1.16711e-06
1.07091e-06
9.92917e-07
9.14364e-07
8.47022e-07
7.92006e-07
7.40804e-07
6.94511e-07
6.61228e-07
6.29696e-07
6.00548e-07
5.74564e-07
5.50325e-07
5.29728e-07
5.13947e-07
5.00287e-07
4.84909e-07
4.7289e-07
4.61811e-07
4.51491e-07
4.42403e-07
4.33301e-07
4.24485e-07
4.18388e-07
4.12638e-07
4.07116e-07
4.02921e-07
3.9875e-07
3.9459e-07
3.90773e-07
3.87865e-07
3.85104e-07
3.81888e-07
3.79834e-07
3.78835e-07
3.77811e-07
3.77033e-07
3.76373e-07
3.75945e-07
3.75436e-07
3.74861e-07
3.75526e-07
3.76287e-07
3.77082e-07
3.78157e-07
3.79118e-07
3.80244e-07
3.81721e-07
3.83125e-07
3.83451e-07
3.85404e-07
3.86717e-07
3.88524e-07
3.9029e-07
3.93116e-07
3.93982e-07
3.972e-07
3.97809e-07
4.01773e-07
4.05323e-07
4.09646e-07
4.02723e-07
4.12126e-07
4.00394e-07
4.19258e-07
4.52924e-07
4.70985e-07
4.88285e-07
4.41631e-07
4.4794e-07
3.41715e-07
3.69293e-07
5.80946e-07
6.30836e-07
9.12507e-07
1.01503e-06
3.5797e-07
3.93335e-07
9.10961e-07
8.01106e-07
5.04401e-07
4.67226e-07
3.59258e-07
3.66785e-07
4.90198e-07
4.74071e-07
5.0473e-07
4.58264e-07
4.85872e-07
5.90252e-07
6.4202e-07
6.45582e-07
8.00671e-07
7.29881e-07
1.07042e-06
1.03795e-06
7.26291e-07
7.36407e-07
6.04294e-07
6.24939e-07
4.95765e-07
5.20595e-07
4.8091e-07
5.2601e-07
6.28439e-07
7.17432e-07
5.36684e-07
6.53898e-07
2.18722e-07
2.97369e-07
9.1413e-07
1.95459e-07
2.37396e-07
9.37326e-08
9.18808e-08
3.90499e-08
3.86939e-08
9.08653e-08
8.59421e-08
9.16222e-08
1.03964e-07
1.33695e-07
1.47717e-07
2.46344e-07
2.82052e-07
2.70032e-07
2.88874e-07
3.23863e-07
3.78354e-07
4.49833e-07
5.38808e-07
6.46444e-07
7.72611e-07
9.14696e-07
1.0552e-06
1.17242e-06
1.26991e-06
1.34246e-06
1.36976e-06
1.3481e-06
1.29435e-06
1.23362e-06
1.18047e-06
1.13854e-06
1.10653e-06
1.08083e-06
1.05729e-06
1.0315e-06
1.00158e-06
9.68966e-07
9.35313e-07
9.04433e-07
8.80412e-07
8.62258e-07
8.50797e-07
8.4622e-07
8.46489e-07
8.48251e-07
8.47911e-07
8.43411e-07
8.34743e-07
8.2289e-07
8.10656e-07
8.01125e-07
7.95716e-07
7.94866e-07
7.9669e-07
7.97948e-07
7.96051e-07
7.91086e-07
7.86328e-07
7.85868e-07
7.9099e-07
7.98264e-07
8.01199e-07
7.95836e-07
7.85541e-07
7.77968e-07
7.78274e-07
7.86717e-07
8.00482e-07
8.15319e-07
8.29599e-07
8.41562e-07
8.42494e-07
8.25859e-07
8.02111e-07
7.99639e-07
8.27891e-07
8.5815e-07
8.43658e-07
7.94796e-07
7.87366e-07
8.46711e-07
8.96705e-07
8.74437e-07
8.54427e-07
9.10253e-07
9.31722e-07
8.78319e-07
8.27258e-07
8.47485e-07
5.21192e-07
4.41938e-07
1.44857e-07
3.07751e-07
1.22031e-09
1.27718e-09
2.11074e-09
5.05743e-09
3.71601e-09
4.5856e-09
4.4341e-09
4.36939e-09
4.13008e-09
3.98915e-09
3.97879e-09
3.95723e-09
3.86591e-09
3.82281e-09
3.9374e-09
4.11526e-09
4.20221e-09
4.17255e-09
4.15699e-09
4.17786e-09
4.21311e-09
4.24362e-09
4.24015e-09
4.26714e-09
4.27571e-09
4.25024e-09
4.14445e-09
4.06778e-09
4.14547e-09
4.32176e-09
4.40987e-09
4.33201e-09
4.09562e-09
4.08916e-09
4.34533e-09
4.57651e-09
4.51885e-09
4.24569e-09
4.01372e-09
4.06122e-09
4.34684e-09
4.65566e-09
4.597e-09
4.49499e-09
4.64579e-09
4.94353e-09
5.17333e-09
5.04922e-09
4.85878e-09
5.0264e-09
5.48024e-09
5.90636e-09
6.18774e-09
5.96507e-09
5.57939e-09
5.51079e-09
6.17425e-09
6.88164e-09
6.86183e-09
6.65259e-09
6.69049e-09
7.08818e-09
7.61332e-09
7.20918e-09
6.93789e-09
6.91424e-09
7.17841e-09
6.88439e-09
6.99036e-09
7.42329e-09
7.1815e-09
6.6965e-09
7.41136e-09
7.96716e-09
6.75257e-09
5.33492e-09
4.69521e-09
4.98362e-09
5.02034e-09
5.35428e-09
4.93755e-09
4.7203e-09
4.88052e-09
4.0801e-09
4.84949e-09
4.67597e-09
2.53576e-09
1.80242e-09
1.61542e-09
1.3772e-09
7.64336e-10
9.34261e-10
1.28634e-09
1.62229e-09
3.02641e-09
2.76078e-09
7.26978e-09
8.91866e-09
8.82685e-09
1.36457e-08
1.02228e-08
8.5845e-09
1.20034e-08
1.53374e-08
1.35851e-08
9.57251e-09
1.21781e-08
8.10527e-09
5.4736e-09
3.17849e-09
3.48905e-09
2.25964e-09
1.87076e-09
2.56029e-09
3.36602e-09
5.29382e-09
5.54972e-09
9.30685e-09
9.23445e-09
1.83898e-08
3.57635e-08
6.05982e-08
2.4665e-08
1.68249e-08
1.62371e-08
1.68897e-08
1.26233e-08
1.4825e-08
6.54923e-09
5.38369e-09
9.6127e-09
1.26006e-08
1.90223e-08
1.79172e-08
4.43731e-08
3.6197e-08
2.85336e-08
5.84461e-08
1.29912e-07
1.38784e-07
8.93212e-08
9.31266e-08
1.05389e-07
1.30953e-07
1.48888e-07
1.4915e-07
1.47011e-07
1.43347e-07
1.38838e-07
1.31054e-07
1.22094e-07
1.16601e-07
1.04849e-07
9.33531e-08
8.77469e-08
8.6753e-08
8.40685e-08
7.62028e-08
6.98212e-08
6.79492e-08
6.77188e-08
6.59082e-08
6.13688e-08
5.84662e-08
5.90546e-08
5.83675e-08
5.50481e-08
5.27336e-08
5.25931e-08
5.3373e-08
5.17181e-08
4.91458e-08
4.92162e-08
4.99623e-08
4.83756e-08
4.72074e-08
4.77837e-08
4.79138e-08
4.67016e-08
4.58461e-08
4.65141e-08
4.65267e-08
4.60921e-08
4.64598e-08
4.70316e-08
4.66849e-08
4.54228e-08
4.59935e-08
4.73905e-08
4.74863e-08
4.73508e-08
4.79886e-08
4.88655e-08
4.83338e-08
4.77284e-08
4.93426e-08
5.12079e-08
5.14438e-08
5.05835e-08
5.08435e-08
5.23725e-08
5.36216e-08
5.46517e-08
5.36387e-08
5.37138e-08
5.55117e-08
5.78986e-08
5.98976e-08
5.83392e-08
5.76683e-08
5.98448e-08
6.23658e-08
6.27828e-08
6.32903e-08
6.36191e-08
6.37107e-08
6.54621e-08
6.79751e-08
7.12937e-08
7.01839e-08
6.847e-08
7.04586e-08
7.17856e-08
7.5207e-08
7.65188e-08
7.77307e-08
7.92535e-08
7.7657e-08
7.74079e-08
7.9093e-08
8.26593e-08
8.56567e-08
8.49656e-08
8.47345e-08
8.73032e-08
8.88646e-08
8.89206e-08
9.15554e-08
9.41966e-08
9.37867e-08
9.19172e-08
9.26546e-08
9.79079e-08
9.86628e-08
9.54843e-08
1.01174e-07
1.0727e-07
1.03842e-07
9.99649e-08