/*--------------------------------*- C++ -*----------------------------------*\
| =========                 |                                                 |
| \\      /  F ield         | OpenFOAM: The Open Source CFD Toolbox           |
|  \\    /   O peration     | Version:  v2006                                 |
|   \\  /    A nd           | Website:  www.openfoam.com                      |
|    \\/     M anipulation  |                                                 |
\*---------------------------------------------------------------------------*/
FoamFile
{
    version     2.0;
    format      ascii;
    class       surfaceScalarField;
    location    "3.2";
    object      phi;
}
// * * * * * * * * * * * * * * * * * * * * * * * * * * * * * * * * * * * * * //

dimensions      [0 3 -1 0 0 0 0];
oriented        oriented;


internalField   nonuniform List<scalar> 
65390
(
-6.37031e-05
-1.45176e-06
-6.20304e-05
-1.67246e-06
-6.03161e-05
-1.71415e-06
-5.85585e-05
-1.75751e-06
-5.67636e-05
-1.79499e-06
-5.50063e-05
-1.75745e-06
-5.32447e-05
-1.7616e-06
-5.14716e-05
-1.77339e-06
-4.9609e-05
-1.86286e-06
-4.76731e-05
-1.93595e-06
-4.57032e-05
-1.96972e-06
-4.37409e-05
-1.96192e-06
-4.17805e-05
-1.95983e-06
-3.98234e-05
-1.95648e-06
-3.78471e-05
-1.9754e-06
-3.57917e-05
-2.05424e-06
-3.36952e-05
-2.09497e-06
-3.16186e-05
-2.07512e-06
-2.95403e-05
-2.07686e-06
-2.74946e-05
-2.04431e-06
-2.55177e-05
-1.97535e-06
-2.36376e-05
-1.87883e-06
-2.18057e-05
-1.83086e-06
-1.98651e-05
-1.93983e-06
-1.77398e-05
-2.12475e-06
-1.55736e-05
-2.16573e-06
-1.35984e-05
-1.97498e-06
-1.19573e-05
-1.64109e-06
-1.03338e-05
-1.62375e-06
-8.49879e-06
-1.83552e-06
-6.53203e-06
-1.96731e-06
-4.68618e-06
-1.84642e-06
-2.90886e-06
-1.7779e-06
-1.03663e-06
-1.87281e-06
8.93877e-07
-1.93105e-06
2.61921e-06
-1.7258e-06
4.16191e-06
-1.54308e-06
5.6498e-06
-1.48824e-06
7.28024e-06
-1.6308e-06
9.11677e-06
-1.83692e-06
1.08985e-05
-1.78215e-06
1.24325e-05
-1.53433e-06
1.38035e-05
-1.37126e-06
1.52747e-05
-1.47133e-06
1.70047e-05
-1.72995e-06
1.88383e-05
-1.83353e-06
2.04638e-05
-1.62524e-06
2.1766e-05
-1.30202e-06
2.30066e-05
-1.24027e-06
2.43672e-05
-1.36038e-06
2.58184e-05
-1.45078e-06
2.73503e-05
-1.53146e-06
2.89017e-05
-1.55085e-06
3.035e-05
-1.44771e-06
3.16221e-05
-1.27145e-06
3.27973e-05
-1.17445e-06
3.40478e-05
-1.2498e-06
3.53959e-05
-1.34739e-06
3.66912e-05
-1.2945e-06
3.78224e-05
-1.13042e-06
3.89021e-05
-1.07893e-06
4.003e-05
-1.12723e-06
4.12729e-05
-1.24231e-06
4.23512e-05
-1.07766e-06
4.30989e-05
-7.4727e-07
4.36552e-05
-5.55946e-07
4.41809e-05
-5.25389e-07
4.47762e-05
-5.95176e-07
4.52114e-05
-4.35001e-07
4.54253e-05
-2.13844e-07
4.54348e-05
-9.40435e-09
4.52877e-05
1.47184e-07
4.49249e-05
3.62993e-07
4.43368e-05
5.88208e-07
4.30053e-05
1.33159e-06
4.07671e-05
2.2382e-06
3.70902e-05
3.67677e-06
3.16078e-05
5.48226e-06
2.67847e-05
4.82283e-06
2.44823e-05
2.30186e-06
2.2452e-05
2.02991e-06
2.18979e-05
5.53786e-07
2.08344e-05
1.06318e-06
2.02832e-05
5.50928e-07
2.07367e-05
-4.53746e-07
2.06632e-05
7.29721e-08
2.05107e-05
1.52059e-07
2.07259e-05
-2.15688e-07
2.11299e-05
-4.04495e-07
2.13749e-05
-2.4527e-07
2.16102e-05
-2.35403e-07
2.18052e-05
-1.95172e-07
2.17977e-05
7.28055e-09
2.1714e-05
8.35843e-08
2.14521e-05
2.61727e-07
2.1044e-05
4.07965e-07
2.00909e-05
9.52921e-07
1.88481e-05
1.24259e-06
1.64303e-05
2.41775e-06
1.32763e-05
3.15395e-06
1.07834e-05
2.49301e-06
9.75362e-06
1.0298e-06
9.91786e-06
-1.64178e-07
9.9965e-06
-7.85821e-08
1.05453e-05
-5.48713e-07
1.12518e-05
-7.0654e-07
1.16418e-05
-3.89994e-07
1.17505e-05
-1.08672e-07
1.18712e-05
-1.20631e-07
1.21067e-05
-2.35517e-07
1.22998e-05
-1.93003e-07
1.25298e-05
-2.29944e-07
1.27089e-05
-1.79072e-07
1.28127e-05
-1.03685e-07
1.2715e-05
9.77361e-08
1.24894e-05
2.25655e-07
1.17038e-05
7.85634e-07
1.0732e-05
9.71928e-07
1.01863e-05
5.45884e-07
1.01848e-05
1.56385e-09
1.04806e-05
-2.95603e-07
1.06495e-05
-1.68732e-07
1.09847e-05
-3.3509e-07
1.1368e-05
-3.83249e-07
1.1593e-05
-2.24921e-07
1.1786e-05
-1.92993e-07
1.19784e-05
-1.92455e-07
1.21467e-05
-1.68392e-07
1.23217e-05
-1.75072e-07
1.24927e-05
-1.71057e-07
1.264e-05
-1.47377e-07
1.27771e-05
-1.37186e-07
1.28972e-05
-1.20155e-07
1.30022e-05
-1.05132e-07
1.30971e-05
-9.50725e-08
1.31884e-05
-9.14895e-08
1.32777e-05
-8.9473e-08
1.33557e-05
-7.82147e-08
1.34239e-05
-6.84349e-08
1.34885e-05
-6.48169e-08
1.35431e-05
-5.47967e-08
1.35849e-05
-4.20571e-08
1.36168e-05
-3.21956e-08
1.36442e-05
-2.75949e-08
1.36591e-05
-1.51531e-08
1.36624e-05
-3.62833e-09
1.36563e-05
5.95717e-09
1.36431e-05
1.29149e-08
1.36233e-05
1.96845e-08
1.35918e-05
3.13084e-08
1.35502e-05
4.14385e-08
1.34972e-05
5.29192e-08
1.34376e-05
5.95801e-08
1.33773e-05
6.02399e-08
1.33109e-05
6.62813e-08
1.32307e-05
8.02497e-08
1.31402e-05
9.04317e-08
1.30472e-05
9.29796e-08
1.29538e-05
9.34172e-08
1.28531e-05
1.00692e-07
1.27409e-05
1.12162e-07
1.26235e-05
1.1733e-07
1.25076e-05
1.15898e-07
1.23882e-05
1.19358e-07
1.22575e-05
1.30621e-07
1.21215e-05
1.36011e-07
1.1987e-05
1.34421e-07
1.18512e-05
1.35668e-07
1.17085e-05
1.42638e-07
1.1557e-05
1.51442e-07
1.1405e-05
1.5198e-07
1.12575e-05
1.47363e-07
1.11072e-05
1.50189e-07
1.09468e-05
1.60319e-07
1.07837e-05
1.63023e-07
1.06229e-05
1.60649e-07
1.04632e-05
1.59654e-07
1.0301e-05
1.62055e-07
1.01351e-05
1.65796e-07
9.96763e-06
1.67409e-07
9.79838e-06
1.69172e-07
9.63256e-06
1.65737e-07
9.46701e-06
1.65475e-07
9.29766e-06
1.69272e-07
9.12639e-06
1.7118e-07
8.95825e-06
1.68049e-07
8.79585e-06
1.62319e-07
8.6302e-06
1.6557e-07
8.4603e-06
1.69829e-07
8.29243e-06
1.67798e-07
8.12945e-06
1.62917e-07
7.9668e-06
1.62591e-07
7.80201e-06
1.64739e-07
7.6388e-06
1.63163e-07
7.47798e-06
1.60779e-07
7.32072e-06
1.57214e-07
7.16252e-06
1.5817e-07
7.00431e-06
1.58173e-07
6.85031e-06
1.53967e-07
6.70208e-06
1.48199e-07
6.55274e-06
1.49301e-07
6.40136e-06
1.51363e-07
6.24943e-06
1.51897e-07
6.10336e-06
1.46047e-07
5.96201e-06
1.41325e-07
5.82463e-06
1.37352e-07
5.68705e-06
1.37551e-07
5.54511e-06
1.41901e-07
5.40657e-06
1.385e-07
5.27501e-06
1.31506e-07
5.14655e-06
1.2841e-07
5.01401e-06
1.32477e-07
4.88406e-06
1.29895e-07
4.75688e-06
1.27122e-07
4.63491e-06
1.21906e-07
4.51803e-06
1.16823e-07
4.39578e-06
1.22193e-07
4.27514e-06
1.20583e-07
4.15639e-06
1.18691e-07
4.03809e-06
1.18253e-07
3.92911e-06
1.08922e-07
3.82292e-06
1.0614e-07
3.71329e-06
1.09578e-07
3.60225e-06
1.10981e-07
3.49536e-06
1.06842e-07
3.39056e-06
1.04742e-07
3.28607e-06
1.04427e-07
3.18601e-06
1.00005e-07
3.09049e-06
9.54613e-08
2.99161e-06
9.88275e-08
2.89209e-06
9.94603e-08
2.79581e-06
9.62304e-08
2.70087e-06
9.48857e-08
2.61032e-06
9.05007e-08
2.52361e-06
8.66592e-08
2.43183e-06
9.17373e-08
2.34028e-06
9.15015e-08
2.25154e-06
8.86999e-08
2.1664e-06
8.50907e-08
2.07993e-06
8.64262e-08
1.99495e-06
8.49324e-08
1.91164e-06
8.32674e-08
1.82997e-06
8.16261e-08
1.74829e-06
8.16352e-08
1.66813e-06
8.01173e-08
1.59009e-06
7.79974e-08
1.50768e-06
8.23731e-08
1.42892e-06
7.87196e-08
1.35472e-06
7.41571e-08
1.27853e-06
7.61555e-08
1.20252e-06
7.59738e-08
1.12762e-06
7.48627e-08
1.05306e-06
7.45192e-08
9.80305e-07
7.27225e-08
9.06392e-07
7.38788e-08
8.33697e-07
7.26605e-08
7.6453e-07
6.91343e-08
6.95425e-07
6.90726e-08
6.24306e-07
7.1087e-08
5.54532e-07
6.97423e-08
4.86893e-07
6.76073e-08
4.21831e-07
6.50318e-08
3.54735e-07
6.70671e-08
2.87699e-07
6.70076e-08
2.21754e-07
6.59174e-08
1.56509e-07
6.5218e-08
9.21366e-08
6.43466e-08
3.08812e-08
6.12303e-08
-2.92389e-08
6.00958e-08
-9.01123e-08
6.08501e-08
-1.51324e-07
6.119e-08
-2.12112e-07
6.0766e-08
-2.71849e-07
5.97157e-08
-3.30405e-07
5.8536e-08
-3.87976e-07
5.75508e-08
-4.44108e-07
5.61114e-08
-5.00228e-07
5.61005e-08
-5.55656e-07
5.54094e-08
-6.10246e-07
5.45721e-08
-6.63965e-07
5.37039e-08
-7.17945e-07
5.39659e-08
-7.71375e-07
5.34172e-08
-8.22961e-07
5.1574e-08
-8.73307e-07
5.03345e-08
-9.22556e-07
4.92387e-08
-9.71285e-07
4.87188e-08
-1.02011e-06
4.88196e-08
-1.0684e-06
4.82805e-08
-1.11562e-06
4.72045e-08
-1.16194e-06
4.63185e-08
-1.2066e-06
4.46521e-08
-1.25037e-06
4.37638e-08
-1.29433e-06
4.39531e-08
-1.33765e-06
4.33121e-08
-1.38001e-06
4.23579e-08
-1.42166e-06
4.16464e-08
-1.46231e-06
4.06422e-08
-1.50213e-06
3.98153e-08
-1.54145e-06
3.93168e-08
-1.57994e-06
3.8493e-08
-1.61765e-06
3.77082e-08
-1.65454e-06
3.68829e-08
-1.69044e-06
3.58982e-08
-1.72572e-06
3.52785e-08
-1.76018e-06
3.44599e-08
-1.79373e-06
3.35472e-08
-1.82615e-06
3.24245e-08
-1.85757e-06
3.14188e-08
-1.8886e-06
3.10252e-08
-1.91864e-06
3.00418e-08
-1.9477e-06
2.90627e-08
-1.97571e-06
2.80081e-08
-2.00277e-06
2.70584e-08
-2.02897e-06
2.61998e-08
-2.05421e-06
2.52375e-08
-2.07845e-06
2.42374e-08
-2.10166e-06
2.32103e-08
-2.12391e-06
2.22491e-08
-2.14527e-06
2.1356e-08
-2.1656e-06
2.03309e-08
-2.18488e-06
1.92806e-08
-2.20303e-06
1.81503e-08
-2.2201e-06
1.70638e-08
-2.23639e-06
1.62918e-08
-2.25162e-06
1.52297e-08
-2.26568e-06
1.40589e-08
-2.27849e-06
1.28067e-08
-2.2905e-06
1.20063e-08
-2.30152e-06
1.10103e-08
-2.31147e-06
9.94574e-09
-2.32037e-06
8.90257e-09
-2.32819e-06
7.81052e-09
-2.33487e-06
6.68454e-09
-2.3405e-06
5.62098e-09
-2.34507e-06
4.56639e-09
-2.34862e-06
3.54188e-09
-2.35116e-06
2.53623e-09
-2.35269e-06
1.52892e-09
-2.35322e-06
5.19669e-10
-2.35272e-06
-5.04967e-10
-2.35129e-06
-1.43529e-09
-2.34901e-06
-2.27553e-09
-2.34585e-06
-3.16654e-09
-2.34178e-06
-4.07859e-09
-2.33679e-06
-4.995e-09
-2.33088e-06
-5.91651e-09
-2.32415e-06
-6.72769e-09
-2.31665e-06
-7.50798e-09
-2.30836e-06
-8.29002e-09
-2.29925e-06
-9.11972e-09
-2.28931e-06
-9.94441e-09
-2.27875e-06
-1.05619e-08
-2.26753e-06
-1.12195e-08
-2.25566e-06
-1.18835e-08
-2.24312e-06
-1.25436e-08
-2.22996e-06
-1.3164e-08
-2.21626e-06
-1.37029e-08
-2.20201e-06
-1.42524e-08
-2.18721e-06
-1.48018e-08
-2.17183e-06
-1.53822e-08
-2.15601e-06
-1.58206e-08
-2.13975e-06
-1.62654e-08
-2.12305e-06
-1.67024e-08
-2.10596e-06
-1.70998e-08
-2.08848e-06
-1.74829e-08
-2.07062e-06
-1.78572e-08
-2.0525e-06
-1.81274e-08
-2.03406e-06
-1.84447e-08
-2.01533e-06
-1.87291e-08
-1.99633e-06
-1.90099e-08
-1.977e-06
-1.93255e-08
-1.95743e-06
-1.95725e-08
-1.93765e-06
-1.97835e-08
-1.91769e-06
-1.99706e-08
-1.89754e-06
-2.01534e-08
-1.87721e-06
-2.03254e-08
-1.8568e-06
-2.042e-08
-1.83627e-06
-2.05284e-08
-1.81565e-06
-2.06191e-08
-1.79495e-06
-2.07032e-08
-1.77415e-06
-2.08066e-08
-1.75327e-06
-2.08882e-08
-1.73235e-06
-2.09152e-08
-1.71145e-06
-2.09073e-08
-1.69057e-06
-2.08771e-08
-1.66972e-06
-2.08612e-08
-1.64888e-06
-2.08337e-08
-1.62808e-06
-2.08066e-08
-1.60731e-06
-2.07743e-08
-1.58659e-06
-2.07188e-08
-1.56593e-06
-2.0667e-08
-1.54529e-06
-2.06438e-08
-1.52467e-06
-2.06173e-08
-1.50421e-06
-2.04628e-08
-1.48383e-06
-2.03809e-08
-1.46354e-06
-2.02938e-08
-1.44337e-06
-2.01734e-08
-1.42331e-06
-2.00665e-08
-1.40332e-06
-1.99873e-08
-1.38341e-06
-1.99094e-08
-1.36361e-06
-1.98052e-08
-1.34393e-06
-1.96848e-08
-1.32438e-06
-1.9546e-08
-1.305e-06
-1.93826e-08
-1.2858e-06
-1.91966e-08
-1.26676e-06
-1.90413e-08
-1.24794e-06
-1.88202e-08
-1.22925e-06
-1.86893e-08
-1.21076e-06
-1.8492e-08
-1.19248e-06
-1.82809e-08
-1.17439e-06
-1.80897e-08
-1.15648e-06
-1.79171e-08
-1.13866e-06
-1.78199e-08
-1.1211e-06
-1.75618e-08
-1.1036e-06
-1.74983e-08
-1.08602e-06
-1.75745e-08
-1.06872e-06
-1.72998e-08
-1.05107e-06
-1.76502e-08
-1.03355e-06
-1.7529e-08
-1.01719e-06
-1.63563e-08
-1.00048e-06
-1.67132e-08
-9.83495e-07
-1.69808e-08
-9.67669e-07
-1.58263e-08
-9.47098e-07
-2.05706e-08
-9.27035e-07
-2.00636e-08
-9.14768e-07
-1.22667e-08
-8.97792e-07
-1.69768e-08
-8.86452e-07
-1.134e-08
-8.83036e-07
-3.41702e-09
-8.9343e-07
1.03929e-08
-9.04293e-07
1.08632e-08
-9.01707e-07
-2.58707e-09
-8.98094e-07
-3.61378e-09
-8.89949e-07
-8.14554e-09
-8.80892e-07
-9.05771e-09
-8.70286e-07
-1.06073e-08
-8.59512e-07
-1.07748e-08
-8.48041e-07
-1.14723e-08
-8.36279e-07
-1.17632e-08
-8.23706e-07
-1.25744e-08
-8.11443e-07
-1.22649e-08
-7.97263e-07
-1.41824e-08
-7.83083e-07
-1.41828e-08
-7.71275e-07
-1.18099e-08
-7.57729e-07
-1.35498e-08
-7.45759e-07
-1.19729e-08
-7.36297e-07
-9.46645e-09
-7.30859e-07
-5.44322e-09
-7.25527e-07
-5.33738e-09
-7.15776e-07
-9.75788e-09
-7.05795e-07
-9.98903e-09
-6.9519e-07
-1.06141e-08
-6.83915e-07
-1.12861e-08
-6.73361e-07
-1.0565e-08
-6.61977e-07
-1.13983e-08
-6.51235e-07
-1.07574e-08
-6.3808e-07
-1.31725e-08
-6.25237e-07
-1.28638e-08
-6.14797e-07
-1.04636e-08
-6.02641e-07
-1.21817e-08
-5.91092e-07
-1.15775e-08
-5.82786e-07
-8.33758e-09
-5.55345e-07
-2.74731e-08
-5.31616e-07
-2.37589e-08
-5.27789e-07
-3.84447e-09
-5.05886e-07
-2.18792e-08
-5.28075e-07
2.22951e-08
-5.6245e-07
3.4685e-08
-7.0121e-07
1.39252e-07
-8.40168e-07
1.39851e-07
-9.30067e-07
9.14831e-08
-9.88404e-07
5.97863e-08
-1.0267e-06
3.96058e-08
-1.05234e-06
2.68269e-08
-1.06977e-06
1.85003e-08
-1.08173e-06
1.29322e-08
-1.08987e-06
9.00898e-09
-1.09516e-06
6.0855e-09
-1.09829e-06
3.84598e-09
-1.09986e-06
2.21819e-09
-1.09987e-06
6.01462e-10
-1.09863e-06
-7.07348e-10
-1.09634e-06
-1.80813e-09
-1.09328e-06
-2.62157e-09
-1.08959e-06
-3.28782e-09
-1.08534e-06
-3.88873e-09
-1.08054e-06
-4.47218e-09
-1.07521e-06
-5.03336e-09
-1.0694e-06
-5.54387e-09
-1.06317e-06
-5.98073e-09
-1.05661e-06
-6.33879e-09
-1.04978e-06
-6.62779e-09
-1.04273e-06
-6.86875e-09
-1.03548e-06
-7.08433e-09
-1.028e-06
-7.32536e-09
-1.0203e-06
-7.56176e-09
-1.01239e-06
-7.78174e-09
-1.00425e-06
-8.02247e-09
-9.95863e-07
-8.2855e-09
-9.872e-07
-8.56715e-09
-9.78236e-07
-8.87585e-09
-9.68955e-07
-9.19959e-09
-9.59368e-07
-9.51343e-09
-9.49507e-07
-9.79312e-09
-9.39435e-07
-1.00096e-08
-9.29215e-07
-1.01626e-08
-9.18907e-07
-1.02561e-08
-9.08563e-07
-1.0297e-08
-8.98193e-07
-1.03263e-08
-8.87843e-07
-1.03098e-08
-8.77557e-07
-1.02496e-08
-8.67376e-07
-1.01468e-08
-8.57336e-07
-1.00095e-08
-8.47442e-07
-9.86588e-09
-8.37664e-07
-9.7522e-09
-8.27941e-07
-9.69842e-09
-8.18205e-07
-9.71434e-09
-8.08392e-07
-9.79212e-09
-7.98456e-07
-9.91766e-09
-7.88362e-07
-1.00759e-08
-7.78112e-07
-1.0234e-08
-7.67774e-07
-1.03226e-08
-7.575e-07
-1.02593e-08
-7.47457e-07
-1.00295e-08
-7.37687e-07
-9.7577e-09
-7.28038e-07
-9.63698e-09
-7.18226e-07
-9.80098e-09
-7.08103e-07
-1.01124e-08
-6.97913e-07
-1.01798e-08
-6.88111e-07
-9.7927e-09
-6.78868e-07
-9.23384e-09
-6.70074e-07
-8.78517e-09
-6.61085e-07
-8.98098e-09
-6.5158e-07
-9.49659e-09
-6.42002e-07
-9.5712e-09
-6.3289e-07
-9.1051e-09
-6.24251e-07
-8.63166e-09
-6.15312e-07
-8.93276e-09
-6.0559e-07
-9.71513e-09
-5.95721e-07
-9.86342e-09
-5.86222e-07
-9.49318e-09
-5.76771e-07
-9.4464e-09
-5.66655e-07
-1.01108e-08
-5.5631e-07
-1.03392e-08
-5.46636e-07
-9.66812e-09
-5.37514e-07
-9.11538e-09
-5.28179e-07
-9.3295e-09
-5.19113e-07
-9.0608e-09
-5.09854e-07
-9.25489e-09
-5.83018e-09
-6.37233e-05
-2.93311e-06
-6.20382e-05
-3.35771e-06
-6.02983e-05
-3.4539e-06
-5.85127e-05
-3.54296e-06
-5.66821e-05
-3.62512e-06
-5.48808e-05
-3.5584e-06
-5.31123e-05
-3.52976e-06
-5.13454e-05
-3.54013e-06
-4.95455e-05
-3.66276e-06
-4.77033e-05
-3.7783e-06
-4.58019e-05
-3.87156e-06
-4.3823e-05
-3.94187e-06
-4.17563e-05
-4.02799e-06
-3.96843e-05
-4.03036e-06
-3.76144e-05
-4.04746e-06
-3.55868e-05
-4.08423e-06
-3.35956e-05
-4.08887e-06
-3.16167e-05
-4.05692e-06
-2.96267e-05
-4.06962e-06
-2.76461e-05
-4.02752e-06
-2.56497e-05
-3.97421e-06
-2.36871e-05
-3.84355e-06
-2.17344e-05
-3.78546e-06
-1.97794e-05
-3.89625e-06
-1.7826e-05
-4.07917e-06
-1.58995e-05
-4.09268e-06
-1.39951e-05
-3.87952e-06
-1.21401e-05
-3.49599e-06
-1.02762e-05
-3.48718e-06
-8.37494e-06
-3.73611e-06
-6.47139e-06
-3.86993e-06
-4.59259e-06
-3.72412e-06
-2.88436e-06
-3.48493e-06
-1.19756e-06
-3.55834e-06
6.18155e-07
-3.74541e-06
2.58064e-06
-3.68686e-06
4.49186e-06
-3.45287e-06
6.13566e-06
-3.13063e-06
7.57355e-06
-3.06736e-06
9.03825e-06
-3.30032e-06
1.07009e-05
-3.44345e-06
1.24977e-05
-3.3298e-06
1.41927e-05
-3.06474e-06
1.57251e-05
-3.00229e-06
1.72507e-05
-3.25413e-06
1.88903e-05
-3.47185e-06
2.05841e-05
-3.31794e-06
2.2185e-05
-2.90207e-06
2.35901e-05
-2.6447e-06
2.49653e-05
-2.73509e-06
2.6422e-05
-2.90709e-06
2.79517e-05
-3.0611e-06
2.94872e-05
-3.08634e-06
3.09185e-05
-2.87917e-06
3.2203e-05
-2.55627e-06
3.33839e-05
-2.35583e-06
3.45902e-05
-2.45654e-06
3.58698e-05
-2.62738e-06
3.70775e-05
-2.50259e-06
3.81702e-05
-2.22344e-06
3.91974e-05
-2.10637e-06
4.02682e-05
-2.19824e-06
4.14155e-05
-2.38981e-06
4.24292e-05
-2.09162e-06
4.32261e-05
-1.54448e-06
4.3931e-05
-1.26133e-06
4.46486e-05
-1.24362e-06
4.53269e-05
-1.27428e-06
4.58404e-05
-9.49351e-07
4.60652e-05
-4.39665e-07
4.61928e-05
-1.38154e-07
4.61977e-05
1.4096e-07
4.62553e-05
3.04026e-07
4.6143e-05
6.98943e-07
4.61652e-05
1.3077e-06
4.60818e-05
2.31993e-06
4.63552e-05
3.40177e-06
4.71035e-05
4.73277e-06
4.49706e-05
6.95499e-06
4.06759e-05
6.59598e-06
3.5359e-05
7.34636e-06
3.0245e-05
5.66722e-06
2.79694e-05
3.33856e-06
2.56633e-05
2.85662e-06
2.43141e-05
8.94827e-07
2.28598e-05
1.52691e-06
2.1511e-05
1.50031e-06
2.1439e-05
-1.4402e-07
2.20717e-05
-1.03722e-06
2.19837e-05
-1.57349e-07
2.19482e-05
-1.99945e-07
2.21045e-05
-3.51473e-07
2.21828e-05
-7.11003e-08
2.22962e-05
-2.98776e-08
2.24343e-05
1.23512e-07
2.23823e-05
4.59779e-07
2.2321e-05
1.01396e-06
2.21155e-05
1.448e-06
2.23836e-05
2.14957e-06
2.22032e-05
3.33434e-06
2.1312e-05
3.38423e-06
1.89015e-05
3.44036e-06
1.55814e-05
3.15614e-06
1.29763e-05
2.52668e-06
1.14649e-05
9.6295e-07
1.09587e-05
-2.00024e-07
1.0916e-05
-3.46997e-07
1.09571e-05
-1.49313e-07
1.14869e-05
-6.50068e-07
1.22474e-05
-9.95648e-07
1.26664e-05
-6.11582e-07
1.28672e-05
-4.30384e-07
1.3015e-05
-3.26507e-07
1.3107e-05
-1.95471e-07
1.32896e-05
-8.46625e-08
1.34803e-05
3.51511e-08
1.38457e-05
4.20371e-07
1.40271e-05
7.90698e-07
1.38724e-05
7.00724e-07
1.30447e-05
8.29357e-07
1.19624e-05
7.86753e-07
1.13553e-05
4.38441e-07
1.1185e-05
-1.64768e-07
1.12682e-05
-4.66425e-07
1.13583e-05
-3.15151e-07
1.16637e-05
-4.98392e-07
1.20257e-05
-5.54665e-07
1.2236e-05
-3.78769e-07
1.23871e-05
-3.26358e-07
1.25215e-05
-3.05637e-07
1.2638e-05
-2.641e-07
1.27741e-05
-2.7353e-07
1.29081e-05
-2.54489e-07
1.30228e-05
-2.20139e-07
1.31209e-05
-1.93506e-07
1.32084e-05
-1.79253e-07
1.32903e-05
-1.71767e-07
1.33638e-05
-1.52023e-07
1.34341e-05
-1.39089e-07
1.35001e-05
-1.31207e-07
1.35551e-05
-1.10155e-07
1.35973e-05
-8.47094e-08
1.3633e-05
-6.81981e-08
1.36598e-05
-5.47376e-08
1.3673e-05
-2.87546e-08
1.36756e-05
-6.5161e-09
1.36721e-05
9.22493e-09
1.36609e-05
2.3999e-08
1.36374e-05
4.29442e-08
1.36032e-05
6.54395e-08
1.3561e-05
8.35696e-08
1.35112e-05
1.02649e-07
1.34547e-05
1.16038e-07
1.33916e-05
1.23223e-07
1.33204e-05
1.3752e-07
1.3238e-05
1.62642e-07
1.31505e-05
1.77976e-07
1.30597e-05
1.8379e-07
1.29636e-05
1.89524e-07
1.28593e-05
2.05031e-07
1.2748e-05
2.235e-07
1.26316e-05
2.33767e-07
1.25133e-05
2.34189e-07
1.23916e-05
2.41059e-07
1.22619e-05
2.60384e-07
1.21264e-05
2.71485e-07
1.19893e-05
2.71487e-07
1.18515e-05
2.73439e-07
1.17093e-05
2.84751e-07
1.15592e-05
3.01543e-07
1.1407e-05
3.04158e-07
1.12573e-05
2.9695e-07
1.11047e-05
3.02785e-07
1.09443e-05
3.20693e-07
1.07834e-05
3.23874e-07
1.06235e-05
3.20484e-07
1.04602e-05
3.2292e-07
1.02954e-05
3.26811e-07
1.01308e-05
3.30403e-07
9.96591e-06
3.32238e-07
9.79906e-06
3.35986e-07
9.63098e-06
3.33769e-07
9.46171e-06
3.34709e-07
9.29131e-06
3.39634e-07
9.12185e-06
3.40612e-07
8.95461e-06
3.3526e-07
8.78955e-06
3.27349e-07
8.62382e-06
3.31284e-07
8.45692e-06
3.36701e-07
8.28975e-06
3.34935e-07
8.12334e-06
3.2929e-07
7.95796e-06
3.27932e-07
7.79322e-06
3.29438e-07
7.63206e-06
3.24278e-07
7.47414e-06
3.18659e-07
7.31667e-06
3.14646e-07
7.15613e-06
3.18663e-07
6.99739e-06
3.16873e-07
6.84413e-06
3.0718e-07
6.6944e-06
2.97891e-07
6.54509e-06
2.98572e-07
6.39517e-06
3.01231e-07
6.24377e-06
3.03252e-07
6.09946e-06
2.90301e-07
5.9592e-06
2.81519e-07
5.81944e-06
2.77036e-07
5.6779e-06
2.78995e-07
5.53646e-06
2.8324e-07
5.40188e-06
2.72975e-07
5.27065e-06
2.62617e-07
5.13844e-06
2.605e-07
5.00549e-06
2.65296e-07
4.87835e-06
2.56907e-07
4.7535e-06
2.5183e-07
4.62987e-06
2.45403e-07
4.51002e-06
2.36532e-07
4.38963e-06
2.42446e-07
4.27086e-06
2.3922e-07
4.15297e-06
2.36454e-07
4.03656e-06
2.3453e-07
3.9258e-06
2.19548e-07
3.81521e-06
2.16598e-07
3.70702e-06
2.17639e-07
3.59848e-06
2.19389e-07
3.49106e-06
2.14137e-07
3.38706e-06
2.08605e-07
3.28401e-06
2.07359e-07
3.18307e-06
2.00814e-07
3.08463e-06
1.93788e-07
2.98712e-06
1.96218e-07
2.88846e-06
1.9801e-07
2.79267e-06
1.91911e-07
2.69947e-06
1.87988e-07
2.60778e-06
1.82082e-07
2.51874e-06
1.75599e-07
2.43051e-06
1.79876e-07
2.34137e-06
1.80548e-07
2.25016e-06
1.79816e-07
2.16138e-06
1.73777e-07
2.07486e-06
1.72857e-07
1.9918e-06
1.679e-07
1.90962e-06
1.65359e-07
1.82693e-06
1.64239e-07
1.74593e-06
1.62549e-07
1.66684e-06
1.59117e-07
1.58751e-06
1.57251e-07
1.50588e-06
1.63925e-07
1.42666e-06
1.57861e-07
1.35096e-06
1.49773e-07
1.27554e-06
1.515e-07
1.20006e-06
1.51376e-07
1.12586e-06
1.48987e-07
1.05136e-06
1.48944e-07
9.78306e-07
1.45708e-07
9.06537e-07
1.45576e-07
8.35299e-07
1.43827e-07
7.64059e-07
1.40305e-07
6.91944e-07
1.41118e-07
6.20913e-07
1.4205e-07
5.5335e-07
1.37239e-07
4.86634e-07
1.34258e-07
4.19941e-07
1.31661e-07
3.52776e-07
1.3417e-07
2.86177e-07
1.33545e-07
2.19957e-07
1.32079e-07
1.5524e-07
1.29878e-07
9.16397e-08
1.27892e-07
2.97633e-08
1.23053e-07
-3.15039e-08
1.21311e-07
-9.28359e-08
1.22131e-07
-1.53843e-07
1.22147e-07
-2.14155e-07
1.21029e-07
-2.73359e-07
1.18872e-07
-3.32e-07
1.17131e-07
-3.90567e-07
1.16073e-07
-4.47505e-07
1.13007e-07
-5.03332e-07
1.11887e-07
-5.58177e-07
1.10215e-07
-6.12549e-07
1.08907e-07
-6.66319e-07
1.07437e-07
-7.19707e-07
1.0732e-07
-7.7306e-07
1.06737e-07
-8.24463e-07
1.02944e-07
-8.74813e-07
1.00653e-07
-9.24759e-07
9.91548e-08
-9.74061e-07
9.79925e-08
-1.02263e-06
9.73592e-08
-1.07063e-06
9.62528e-08
-1.1175e-06
9.40503e-08
-1.16366e-06
9.24548e-08
-1.20894e-06
8.9914e-08
-1.25338e-06
8.81876e-08
-1.2973e-06
8.78511e-08
-1.34047e-06
8.64606e-08
-1.38262e-06
8.4489e-08
-1.42411e-06
8.31217e-08
-1.465e-06
8.15221e-08
-1.50521e-06
8.00074e-08
-1.54446e-06
7.85574e-08
-1.58282e-06
7.68346e-08
-1.6204e-06
7.5281e-08
-1.65718e-06
7.36538e-08
-1.69325e-06
7.19562e-08
-1.72858e-06
7.05998e-08
-1.76281e-06
6.86839e-08
-1.79622e-06
6.69422e-08
-1.82881e-06
6.50093e-08
-1.86049e-06
6.30938e-08
-1.8915e-06
6.2031e-08
-1.92144e-06
5.99712e-08
-1.95045e-06
5.80734e-08
-1.97855e-06
5.60944e-08
-2.00575e-06
5.42533e-08
-2.03201e-06
5.24596e-08
-2.05726e-06
5.04808e-08
-2.08152e-06
4.8499e-08
-2.10482e-06
4.65028e-08
-2.1272e-06
4.46273e-08
-2.14855e-06
4.27039e-08
-2.16883e-06
4.06028e-08
-2.18808e-06
3.85225e-08
-2.20632e-06
3.63889e-08
-2.22356e-06
3.42988e-08
-2.23987e-06
3.26012e-08
-2.25502e-06
3.037e-08
-2.26907e-06
2.81099e-08
-2.28208e-06
2.58138e-08
-2.29407e-06
2.39884e-08
-2.30502e-06
2.19494e-08
-2.3149e-06
1.98271e-08
-2.3237e-06
1.76956e-08
-2.33144e-06
1.55355e-08
-2.33811e-06
1.33565e-08
-2.34374e-06
1.12395e-08
-2.3483e-06
9.11965e-09
-2.35183e-06
7.06789e-09
-2.35436e-06
5.05362e-09
-2.35588e-06
3.04046e-09
-2.3564e-06
1.03312e-09
-2.35594e-06
-9.71106e-10
-2.35452e-06
-2.86238e-09
-2.35217e-06
-4.63198e-09
-2.34892e-06
-6.4265e-09
-2.34475e-06
-8.25337e-09
-2.33969e-06
-1.00645e-08
-2.33375e-06
-1.18568e-08
-2.32699e-06
-1.34957e-08
-2.31941e-06
-1.51011e-08
-2.31102e-06
-1.66787e-08
-2.30186e-06
-1.82898e-08
-2.29197e-06
-1.98417e-08
-2.2814e-06
-2.11354e-08
-2.2701e-06
-2.25251e-08
-2.25813e-06
-2.38573e-08
-2.24553e-06
-2.51514e-08
-2.23232e-06
-2.63835e-08
-2.21852e-06
-2.75105e-08
-2.20413e-06
-2.86458e-08
-2.18923e-06
-2.971e-08
-2.17388e-06
-3.07344e-08
-2.15809e-06
-3.16136e-08
-2.14175e-06
-3.26145e-08
-2.12496e-06
-3.34937e-08
-2.10779e-06
-3.42784e-08
-2.09023e-06
-3.50455e-08
-2.07235e-06
-3.57467e-08
-2.05416e-06
-3.63221e-08
-2.03561e-06
-3.70038e-08
-2.01676e-06
-3.75788e-08
-1.99765e-06
-3.81224e-08
-1.97827e-06
-3.87134e-08
-1.95865e-06
-3.91972e-08
-1.93882e-06
-3.96166e-08
-1.91882e-06
-3.99764e-08
-1.89865e-06
-4.03357e-08
-1.87832e-06
-4.06558e-08
-1.85787e-06
-4.08712e-08
-1.83728e-06
-4.11288e-08
-1.81658e-06
-4.13206e-08
-1.79582e-06
-4.14722e-08
-1.77499e-06
-4.16357e-08
-1.75413e-06
-4.17601e-08
-1.73323e-06
-4.18191e-08
-1.71233e-06
-4.18129e-08
-1.69146e-06
-4.17474e-08
-1.67057e-06
-4.17576e-08
-1.64968e-06
-4.1725e-08
-1.62882e-06
-4.16704e-08
-1.608e-06
-4.16086e-08
-1.58721e-06
-4.15075e-08
-1.56649e-06
-4.13969e-08
-1.54583e-06
-4.13036e-08
-1.52527e-06
-4.11809e-08
-1.50481e-06
-4.09282e-08
-1.4844e-06
-4.07915e-08
-1.46408e-06
-4.06248e-08
-1.44385e-06
-4.04061e-08
-1.4237e-06
-4.02149e-08
-1.40368e-06
-4.00161e-08
-1.38374e-06
-3.98473e-08
-1.36395e-06
-3.96004e-08
-1.34425e-06
-3.93799e-08
-1.32472e-06
-3.90806e-08
-1.30529e-06
-3.88191e-08
-1.28604e-06
-3.84401e-08
-1.26687e-06
-3.82196e-08
-1.24796e-06
-3.77244e-08
-1.22917e-06
-3.74856e-08
-1.21067e-06
-3.69875e-08
-1.19256e-06
-3.63913e-08
-1.17458e-06
-3.60713e-08
-1.15695e-06
-3.55565e-08
-1.13901e-06
-3.57587e-08
-1.12141e-06
-3.51598e-08
-1.10333e-06
-3.55834e-08
-1.08564e-06
-3.52615e-08
-1.06912e-06
-3.38166e-08
-1.05275e-06
-3.40247e-08
-1.03575e-06
-3.45229e-08
-1.01914e-06
-3.29706e-08
-9.97493e-07
-3.83589e-08
-9.76926e-07
-3.75473e-08
-9.65077e-07
-2.76744e-08
-9.5308e-07
-3.25667e-08
-9.46069e-07
-2.70741e-08
-9.42339e-07
-1.59963e-08
-9.54518e-07
-4.79732e-09
-9.64731e-07
-1.12622e-09
-9.59698e-07
-8.44916e-09
-9.48187e-07
-1.11644e-09
-9.32041e-07
-5.28146e-09
-9.2103e-07
-1.35964e-08
-9.08567e-07
-1.60757e-08
-8.97698e-07
-1.90117e-08
-8.86087e-07
-2.06671e-08
-8.74729e-07
-2.19628e-08
-8.62824e-07
-2.26765e-08
-8.5091e-07
-2.33834e-08
-8.36877e-07
-2.5793e-08
-8.22986e-07
-2.64615e-08
-8.11774e-07
-2.3473e-08
-8.00452e-07
-2.54993e-08
-7.90285e-07
-2.43443e-08
-7.81213e-07
-2.08759e-08
-7.7664e-07
-1.81153e-08
-7.71771e-07
-1.68339e-08
-7.6119e-07
-2.00377e-08
-7.49065e-07
-1.75578e-08
-7.35031e-07
-1.93583e-08
-7.23657e-07
-2.11178e-08
-7.10182e-07
-2.3448e-08
-6.98579e-07
-2.21978e-08
-6.83285e-07
-2.65587e-08
-6.70945e-07
-2.28814e-08
-6.59702e-07
-2.26148e-08
-6.51017e-07
-1.94126e-08
-6.42615e-07
-2.15411e-08
-6.33353e-07
-2.20879e-08
-6.25034e-07
-1.87396e-08
-5.95494e-07
-4.16729e-08
-5.69968e-07
-3.70512e-08
-5.66413e-07
-1.18421e-08
-5.61577e-07
-3.22731e-08
-5.94396e-07
9.05981e-09
-6.32129e-07
3.37907e-08
-7.90812e-07
1.36586e-07
-9.44593e-07
1.75478e-07
-1.04472e-06
1.33625e-07
-1.07889e-06
1.71841e-07
-1.0625e-06
1.21071e-07
-1.05987e-06
8.65778e-08
-1.06688e-06
6.46534e-08
-1.07653e-06
4.72792e-08
-1.08594e-06
3.44239e-08
-1.09397e-06
2.48754e-08
-1.10028e-06
1.77386e-08
-1.10478e-06
1.21473e-08
-1.10761e-06
7.67397e-09
-1.10905e-06
4.16836e-09
-1.109e-06
1.15467e-09
-1.10787e-06
-1.45449e-09
-1.10595e-06
-3.46303e-09
-1.10317e-06
-5.33787e-09
-1.09961e-06
-6.86386e-09
-1.09537e-06
-8.14685e-09
-1.0905e-06
-9.31846e-09
-1.08505e-06
-1.04297e-08
-1.07908e-06
-1.14572e-08
-1.07269e-06
-1.23574e-08
-1.06594e-06
-1.31013e-08
-1.05893e-06
-1.36936e-08
-1.0517e-06
-1.41663e-08
-1.04427e-06
-1.45722e-08
-1.03664e-06
-1.49653e-08
-1.02886e-06
-1.5342e-08
-1.02087e-06
-1.57578e-08
-1.01261e-06
-1.62254e-08
-1.00412e-06
-1.66838e-08
-9.95421e-07
-1.7143e-08
-9.8651e-07
-1.76193e-08
-9.77402e-07
-1.81123e-08
-9.68112e-07
-1.8606e-08
-9.58661e-07
-1.90707e-08
-9.49058e-07
-1.94913e-08
-9.39295e-07
-1.98597e-08
-9.29388e-07
-2.01475e-08
-9.19361e-07
-2.03539e-08
-9.0923e-07
-2.04918e-08
-8.99075e-07
-2.05379e-08
-8.88912e-07
-2.05238e-08
-8.78777e-07
-2.04311e-08
-8.68708e-07
-2.02565e-08
-8.58719e-07
-2.00349e-08
-8.48792e-07
-1.9826e-08
-8.38888e-07
-1.96856e-08
-8.28971e-07
-1.96404e-08
-8.19029e-07
-1.96799e-08
-8.09057e-07
-1.97834e-08
-7.99048e-07
-1.99453e-08
-7.88971e-07
-2.01684e-08
-7.78806e-07
-2.04124e-08
-7.68584e-07
-2.05567e-08
-7.584e-07
-2.04531e-08
-7.48357e-07
-2.00812e-08
-7.38462e-07
-1.96612e-08
-7.28591e-07
-1.95145e-08
-7.18655e-07
-1.97422e-08
-7.08729e-07
-2.00428e-08
-6.98982e-07
-1.99298e-08
-6.89533e-07
-1.92442e-08
-6.80456e-07
-1.83131e-08
-6.71112e-07
-1.81305e-08
-6.6142e-07
-1.86736e-08
-6.51753e-07
-1.91633e-08
-6.42451e-07
-1.88724e-08
-6.33555e-07
-1.79995e-08
-6.24412e-07
-1.77732e-08
-6.14687e-07
-1.86561e-08
-6.0503e-07
-1.93694e-08
-5.95758e-07
-1.9134e-08
-5.86673e-07
-1.85758e-08
-5.7701e-07
-1.9107e-08
-5.67394e-07
-1.97234e-08
-5.58294e-07
-1.94362e-08
-5.49422e-07
-1.85356e-08
-5.40345e-07
-1.8188e-08
-5.31313e-07
-1.83588e-08
-5.2191e-07
-1.84619e-08
-5.11886e-07
-1.92787e-08
-1.36862e-08
-6.38263e-05
-4.41984e-06
-6.21315e-05
-5.05305e-06
-6.03865e-05
-5.19924e-06
-5.85969e-05
-5.33295e-06
-5.67607e-05
-5.46188e-06
-5.4944e-05
-5.37552e-06
-5.31454e-05
-5.32859e-06
-5.13547e-05
-5.33091e-06
-4.95455e-05
-5.4718e-06
-4.7705e-05
-5.61834e-06
-4.58165e-05
-5.75941e-06
-4.38701e-05
-5.88724e-06
-4.18985e-05
-5.99818e-06
-3.98905e-05
-6.03681e-06
-3.78709e-05
-6.06543e-06
-3.58639e-05
-6.08936e-06
-3.38755e-05
-6.07528e-06
-3.18953e-05
-6.03508e-06
-2.99354e-05
-6.02774e-06
-2.79713e-05
-5.99001e-06
-2.60164e-05
-5.92774e-06
-2.40455e-05
-5.81324e-06
-2.20703e-05
-5.75973e-06
-2.01196e-05
-5.84633e-06
-1.82713e-05
-5.92706e-06
-1.64447e-05
-5.91908e-06
-1.45929e-05
-5.7313e-06
-1.26287e-05
-5.46026e-06
-1.06444e-05
-5.47192e-06
-8.71857e-06
-5.66242e-06
-6.87593e-06
-5.7132e-06
-5.02888e-06
-5.5719e-06
-3.25121e-06
-5.26337e-06
-1.50961e-06
-5.30073e-06
2.84891e-07
-5.54069e-06
2.22614e-06
-5.62886e-06
4.19109e-06
-5.41855e-06
6.03673e-06
-4.977e-06
7.61682e-06
-4.64823e-06
9.05586e-06
-4.74019e-06
1.06293e-05
-5.01776e-06
1.23816e-05
-5.08311e-06
1.41773e-05
-4.86156e-06
1.5889e-05
-4.71511e-06
1.74642e-05
-4.83063e-06
1.89797e-05
-4.98875e-06
2.05633e-05
-4.90288e-06
2.22301e-05
-4.57014e-06
2.38882e-05
-4.30395e-06
2.54754e-05
-4.32337e-06
2.69821e-05
-4.41473e-06
2.83779e-05
-4.45768e-06
2.9754e-05
-4.46311e-06
3.11523e-05
-4.27813e-06
3.25288e-05
-3.93329e-06
3.37898e-05
-3.61721e-06
3.49744e-05
-3.64137e-06
3.61195e-05
-3.77258e-06
3.72388e-05
-3.62186e-06
3.8345e-05
-3.32949e-06
3.94235e-05
-3.18462e-06
4.05127e-05
-3.28728e-06
4.15411e-05
-3.41779e-06
4.2484e-05
-3.03419e-06
4.33926e-05
-2.45251e-06
4.43079e-05
-2.176e-06
4.52339e-05
-2.16882e-06
4.59321e-05
-1.97158e-06
4.64401e-05