/*--------------------------------*- C++ -*----------------------------------*\
| =========                 |                                                 |
| \\      /  F ield         | OpenFOAM: The Open Source CFD Toolbox           |
|  \\    /   O peration     | Version:  v2006                                 |
|   \\  /    A nd           | Website:  www.openfoam.com                      |
|    \\/     M anipulation  |                                                 |
\*---------------------------------------------------------------------------*/
FoamFile
{
    version     2.0;
    format      ascii;
    class       surfaceScalarField;
    location    "9.5";
    object      alphaPhi0.water;
}
// * * * * * * * * * * * * * * * * * * * * * * * * * * * * * * * * * * * * * //

dimensions      [0 3 -1 0 0 0 0];
oriented        oriented;


internalField   nonuniform List<scalar> 
65390
(
-2.78555e-05
9.78153e-06
-3.07256e-05
2.86929e-06
-3.21474e-05
1.42113e-06
-3.01002e-05
-2.04755e-06
-2.46767e-05
-5.42365e-06
-1.86195e-05
-6.0572e-06
-1.26442e-05
-5.97504e-06
-6.81984e-06
-5.82401e-06
-8.98109e-07
-5.92119e-06
4.73389e-06
-5.63127e-06
9.05807e-06
-4.32337e-06
1.23167e-05
-3.2576e-06
1.50746e-05
-2.75693e-06
1.76833e-05
-2.60886e-06
2.05318e-05
-2.84889e-06
2.32745e-05
-2.75045e-06
2.63588e-05
-3.08354e-06
2.95136e-05
-3.15555e-06
3.16779e-05
-2.15163e-06
3.22561e-05
-5.66645e-07
3.17525e-05
5.07191e-07
3.0541e-05
1.21238e-06
2.81064e-05
2.43524e-06
2.42412e-05
3.86554e-06
1.98049e-05
4.43662e-06
1.64639e-05
3.34125e-06
1.50578e-05
1.40625e-06
1.53774e-05
-3.19597e-07
1.68344e-05
-1.45713e-06
1.86091e-05
-1.77473e-06
1.95993e-05
-9.90386e-07
1.95809e-05
1.80716e-08
1.8494e-05
1.08653e-06
1.67834e-05
1.71022e-06
1.40793e-05
2.70377e-06
9.30727e-06
4.77161e-06
4.3722e-06
4.93458e-06
6.98266e-07
3.67353e-06
-2.38149e-06
3.07957e-06
-4.57983e-06
2.19803e-06
-5.24985e-06
6.68725e-07
-5.26633e-06
1.64725e-08
-5.35713e-06
9.10374e-08
-6.28033e-06
9.24363e-07
-7.59973e-06
1.3192e-06
-8.05972e-06
4.57647e-07
-7.45613e-06
-6.0388e-07
-6.63768e-06
-8.18311e-07
-6.12743e-06
-5.08281e-07
-6.59124e-06
4.6426e-07
-7.11482e-06
5.22454e-07
-7.03892e-06
-7.71683e-08
-6.09718e-06
-9.4157e-07
-4.70996e-06
-1.38692e-06
-3.0854e-06
-1.62429e-06
-1.35089e-06
-1.73423e-06
4.02075e-07
-1.7527e-06
2.00484e-06
-1.6025e-06
3.32832e-06
-1.32322e-06
4.06077e-06
-7.32256e-07
4.20537e-06
-1.44516e-07
3.90135e-06
3.01085e-07
3.49441e-06
4.08665e-07
3.26227e-06
2.33187e-07
3.26493e-06
-2.57823e-09
3.50558e-06
-2.4088e-07
4.03454e-06
-5.29266e-07
5.0445e-06
-1.0103e-06
6.64282e-06
-1.59869e-06
8.66029e-06
-2.01784e-06
1.0885e-05
-2.22509e-06
1.29877e-05
-2.10322e-06
1.48305e-05
-1.84311e-06
1.63875e-05
-1.55661e-06
1.77477e-05
-1.35949e-06
1.8925e-05
-1.18265e-06
1.9682e-05
-7.59375e-07
1.89552e-05
7.26542e-07
1.73672e-05
1.58809e-06
1.65142e-05
8.55962e-07
1.5559e-05
9.52356e-07
1.51636e-05
3.95198e-07
1.47461e-05
4.17557e-07
1.46495e-05
9.6661e-08
1.48286e-05
-1.75855e-07
1.46938e-05
1.38408e-07
1.45882e-05
1.06394e-07
1.47263e-05
-1.38061e-07
1.50057e-05
-2.79338e-07
1.52643e-05
-2.58481e-07
1.56059e-05
-3.41451e-07
1.59479e-05
-3.41877e-07
1.61669e-05
-2.19551e-07
1.63353e-05
-1.72036e-07
1.63966e-05
-6.16847e-08
1.64948e-05
-9.61253e-08
1.64693e-05
2.81736e-08
1.6334e-05
1.36056e-07
1.52627e-05
1.07135e-06
1.33664e-05
1.89641e-06
1.19489e-05
1.41752e-06
1.14546e-05
4.94352e-07
1.172e-05
-2.65426e-07
1.19119e-05
-1.93479e-07
1.24503e-05
-5.40006e-07
1.31214e-05
-6.71125e-07
1.35796e-05
-4.58108e-07
1.38493e-05
-2.69733e-07
1.41322e-05
-2.80879e-07
1.45228e-05
-3.88958e-07
1.48478e-05
-3.24866e-07
1.51854e-05
-3.37821e-07
1.54551e-05
-2.71798e-07
1.56187e-05
-1.71872e-07
1.55564e-05
6.86719e-08
1.53484e-05
2.10692e-07
1.44781e-05
8.70496e-07
1.33582e-05
1.1192e-06
1.2743e-05
6.13031e-07
1.27833e-05
-4.03617e-08
1.31817e-05
-3.98288e-07
1.34301e-05
-2.47396e-07
1.38862e-05
-4.56168e-07
1.4407e-05
-5.21181e-07
1.47263e-05
-3.22179e-07
1.50046e-05
-2.78186e-07
1.52835e-05
-2.76883e-07
1.55287e-05
-2.44097e-07
1.57904e-05
-2.6194e-07
1.60489e-05
-2.58517e-07
1.62677e-05
-2.19187e-07
1.64477e-05
-1.84046e-07
1.6609e-05
-1.60777e-07
1.67617e-05
-1.4926e-07
1.68994e-05
-1.36839e-07
1.70216e-05
-1.22053e-07
1.7128e-05
-1.06208e-07
1.72164e-05
-8.82451e-08
1.72891e-05
-7.26835e-08
1.73458e-05
-5.65785e-08
1.73779e-05
-3.31336e-08
1.73801e-05
-4.94098e-09
1.73617e-05
1.84408e-08
1.73248e-05
3.8678e-08
1.72724e-05
5.37955e-08
1.71998e-05
7.2559e-08
1.7102e-05
9.77044e-08
1.69669e-05
1.32034e-07
1.68082e-05
1.59533e-07
1.66372e-05
1.72662e-07
1.64481e-05
1.89076e-07
1.62334e-05
2.144e-07
1.5988e-05
2.43743e-07
1.57153e-05
2.71108e-07
1.54209e-05
2.94474e-07
1.51071e-05
3.15036e-07
1.47702e-05
3.37333e-07
1.44064e-05
3.63603e-07
1.40165e-05
3.89635e-07
1.36023e-05
4.13916e-07
1.31639e-05
4.37551e-07
1.27035e-05
4.60294e-07
1.22202e-05
4.83389e-07
1.17079e-05
5.12708e-07
1.11635e-05
5.44479e-07
1.06e-05
5.63535e-07
1.00218e-05
5.78224e-07
9.42234e-06
5.99584e-07
8.79078e-06
6.31287e-07
8.12891e-06
6.61735e-07
7.45888e-06
6.70298e-07
6.78742e-06
6.71635e-07
6.10766e-06
6.79661e-07
5.41731e-06
6.89887e-07
4.70712e-06
7.09483e-07
3.98165e-06
7.25422e-07
3.25993e-06
7.21727e-07
2.55331e-06
7.06657e-07
1.86981e-06
6.83332e-07
1.21015e-06
6.59452e-07
5.66849e-07
6.4308e-07
-5.75608e-08
6.24364e-07
-6.63814e-07
6.06216e-07
-1.25593e-06
5.91946e-07
-1.82456e-06
5.68632e-07
-2.36182e-06
5.37256e-07
-2.87119e-06
5.09526e-07
-3.36235e-06
4.91401e-07
-3.84108e-06
4.78761e-07
-4.30459e-06
4.63477e-07
-4.75061e-06
4.4525e-07
-5.17401e-06
4.23254e-07
-5.57493e-06
4.00874e-07
-5.95649e-06
3.81516e-07
-6.32148e-06
3.65004e-07
-6.67471e-06
3.53613e-07
-7.01877e-06
3.44359e-07
-7.3495e-06
3.30732e-07
-7.66423e-06
3.14131e-07
-7.95682e-06
2.92009e-07
-8.23175e-06
2.74886e-07
-8.49441e-06
2.62598e-07
-8.74676e-06
2.52489e-07
-8.98812e-06
2.41693e-07
-9.21732e-06
2.29025e-07
-9.43104e-06
2.13296e-07
-9.63032e-06
1.99209e-07
-9.81968e-06
1.89298e-07
-1.00026e-05
1.83338e-07
-1.01783e-05
1.75381e-07
-1.03368e-05
1.57862e-07
-1.0478e-05
1.41174e-07
-1.06093e-05
1.31245e-07
-1.07316e-05
1.22545e-07
-1.08468e-05
1.15751e-07
-1.09588e-05
1.12293e-07
-1.10637e-05
1.05044e-07
-1.11579e-05
9.32583e-08
-1.12363e-05
7.8427e-08
-1.13038e-05
6.74759e-08
-1.13635e-05
5.97922e-08
-1.14162e-05
5.32641e-08
-1.14654e-05
4.98721e-08
-1.15112e-05
4.59097e-08
-1.15507e-05
3.85703e-08
-1.15794e-05
2.86328e-08
-1.15973e-05
1.79252e-08
-1.16073e-05
9.98895e-09
-1.1611e-05
4.17173e-09
-1.16118e-05
1.41144e-09
-1.16121e-05
3.90997e-10
-1.16072e-05
-4.83506e-09
-1.15947e-05
-1.32732e-08
-1.15723e-05
-2.22738e-08
-1.15427e-05
-2.9467e-08
-1.1509e-05
-3.35989e-08
-1.14723e-05
-3.67173e-08
-1.14326e-05
-3.99637e-08
-1.13889e-05
-4.36967e-08
-1.13423e-05
-4.65751e-08
-1.12926e-05
-4.92424e-08
-1.12394e-05
-5.30931e-08
-1.11807e-05
-5.93928e-08
-1.1114e-05
-6.67901e-08
-1.10433e-05
-7.06655e-08
-1.09704e-05
-7.27734e-08
-1.08967e-05
-7.31676e-08
-1.08242e-05
-7.15048e-08
-1.07506e-05
-7.50649e-08
-1.06651e-05
-8.55713e-08
-1.05749e-05
-9.01849e-08
-1.04836e-05
-9.13602e-08
-1.03905e-05
-9.27911e-08
-1.02977e-05
-9.25593e-08
-1.02039e-05
-9.36953e-08
-1.01058e-05
-9.8567e-08
-1.00025e-05
-1.03364e-07
-9.89548e-06
-1.06951e-07
-9.78703e-06
-1.08399e-07
-9.67757e-06
-1.09217e-07
-9.56588e-06
-1.11686e-07
-9.45096e-06
-1.14928e-07
-9.33249e-06
-1.18656e-07
-9.20914e-06
-1.23375e-07
-9.08354e-06
-1.25617e-07
-8.95847e-06
-1.24965e-07
-8.83487e-06
-1.23462e-07
-8.70966e-06
-1.2534e-07
-8.57706e-06
-1.3268e-07
-8.43884e-06
-1.38235e-07
-8.29854e-06
-1.40288e-07
-8.15634e-06
-1.42204e-07
-8.01187e-06
-1.44406e-07
-7.86663e-06
-1.44862e-07
-7.72257e-06
-1.44058e-07
-7.57645e-06
-1.46325e-07
-7.42489e-06
-1.51696e-07
-7.2684e-06
-1.5649e-07
-7.10888e-06
-1.59519e-07
-6.94674e-06
-1.62126e-07
-6.78136e-06
-1.65343e-07
-6.61345e-06
-1.67837e-07
-6.44631e-06
-1.67044e-07
-6.27942e-06
-1.66894e-07
-6.10694e-06
-1.72576e-07
-5.92787e-06
-1.79104e-07
-5.74618e-06
-1.81693e-07
-5.56221e-06
-1.83974e-07
-5.37529e-06
-1.86905e-07
-5.18552e-06
-1.89715e-07
-4.99552e-06
-1.89932e-07
-4.80368e-06
-1.91854e-07
-4.6076e-06
-1.96128e-07
-4.40694e-06
-2.00705e-07
-4.20288e-06
-2.04068e-07
-3.99589e-06
-2.06988e-07
-3.78669e-06
-2.09191e-07
-3.57731e-06
-2.09357e-07
-3.36654e-06
-2.1077e-07
-3.15369e-06
-2.12889e-07
-2.93836e-06
-2.15338e-07
-2.7205e-06
-2.17859e-07
-2.50149e-06
-2.19007e-07
-2.28407e-06
-2.17383e-07
-2.068e-06
-2.16066e-07
-1.85236e-06
-2.15627e-07
-1.63685e-06
-2.15494e-07
-1.42322e-06
-2.13619e-07
-1.21336e-06
-2.09851e-07
-1.00757e-06
-2.05778e-07
-8.05591e-07
-2.01972e-07
-6.07678e-07
-1.97905e-07
-4.15272e-07
-1.92409e-07
-2.29769e-07
-1.85516e-07
-5.14991e-08
-1.78284e-07
1.19857e-07
-1.7136e-07
2.84857e-07
-1.64992e-07
4.43687e-07
-1.58818e-07
5.96265e-07
-1.52573e-07
7.4259e-07
-1.46329e-07
8.82828e-07
-1.40244e-07
1.0172e-06
-1.34371e-07
1.14607e-06
-1.28855e-07
1.26961e-06
-1.23542e-07
1.38792e-06
-1.18319e-07
1.50122e-06
-1.13337e-07
1.60985e-06
-1.08682e-07
1.71402e-06
-1.04212e-07
1.81367e-06
-9.96853e-08
1.90896e-06
-9.52888e-08
2.00026e-06
-9.12912e-08
2.08796e-06
-8.76857e-08
2.17223e-06
-8.42553e-08
2.25303e-06
-8.078e-08
2.33026e-06
-7.7211e-08
2.40396e-06
-7.36984e-08
2.47455e-06
-7.05802e-08
2.54241e-06
-6.78801e-08
2.60776e-06
-6.53853e-08
2.67059e-06
-6.28642e-08
2.73091e-06
-6.03582e-08
2.78881e-06
-5.79246e-08
2.84437e-06
-5.55725e-08
2.89767e-06
-5.33062e-08
2.94879e-06
-5.11289e-08
2.99791e-06
-4.91283e-08
3.04513e-06
-4.72325e-08
3.09046e-06
-4.53358e-08
3.13392e-06
-4.34596e-08
3.17552e-06
-4.15937e-08
3.21527e-06
-3.97394e-08
3.25314e-06
-3.78718e-08
3.28918e-06
-3.60522e-08
3.32353e-06
-3.43764e-08
3.35627e-06
-3.2758e-08
3.38736e-06
-3.11142e-08
3.41678e-06
-2.9459e-08
3.44443e-06
-2.76887e-08
3.47034e-06
-2.59607e-08
3.4946e-06
-2.42976e-08
3.51724e-06
-2.26564e-08
3.53825e-06
-2.10058e-08
3.55764e-06
-1.93781e-08
3.5754e-06
-1.77619e-08
3.59138e-06
-1.59928e-08
3.60542e-06
-1.40497e-08
3.61761e-06
-1.21789e-08
3.62823e-06
-1.05905e-08
3.63753e-06
-9.22805e-09
3.6453e-06
-7.69835e-09
3.65109e-06
-5.75214e-09
3.65489e-06
-3.79694e-09
3.65713e-06
-2.27587e-09
3.65802e-06
-9.53543e-10
3.65752e-06
4.35076e-10
3.65544e-06
2.02294e-09
3.65165e-06
3.76455e-09
3.64632e-06
5.33845e-09
3.63921e-06
7.15119e-09
3.63022e-06
9.0441e-09
3.61989e-06
1.04335e-08
3.60872e-06
1.12827e-08
3.59642e-06
1.24031e-08
3.58268e-06
1.3829e-08
3.56748e-06
1.52446e-08
3.55086e-06
1.65921e-08
3.53286e-06
1.79227e-08
3.51378e-06
1.89587e-08
3.49383e-06
1.9819e-08
3.47269e-06
2.10209e-08
3.45021e-06
2.23849e-08
3.42669e-06
2.3473e-08
3.40256e-06
2.41071e-08
3.37774e-06
2.48178e-08
3.35208e-06
2.56608e-08
3.32572e-06
2.63828e-08
3.2987e-06
2.70467e-08
3.27058e-06
2.81292e-08
3.24159e-06
2.90095e-08
3.21209e-06
2.9512e-08
3.18216e-06
2.99138e-08
3.15224e-06
2.99126e-08
3.12211e-06
3.01167e-08
3.09186e-06
3.02316e-08
3.05997e-06
3.18653e-08
3.02704e-06
3.29213e-08
2.99401e-06
3.30383e-08
2.96243e-06
3.15862e-08
2.93005e-06
3.23757e-08
2.89708e-06
3.29841e-08
2.86313e-06
3.39473e-08
2.82905e-06
3.40862e-08
2.79694e-06
3.2129e-08
2.76408e-06
3.28637e-08
2.7326e-06
3.14834e-08
2.70064e-06
3.19632e-08
2.66897e-06
3.1677e-08
2.64132e-06
2.76556e-08
2.61372e-06
2.76088e-08
2.58112e-06
3.26075e-08
2.55429e-06
2.68328e-08
2.52172e-06
3.25689e-08
2.4886e-06
3.31051e-08
2.48189e-06
6.70807e-09
2.47143e-06
1.04488e-08
2.4379e-06
3.35222e-08
2.43021e-06
7.67982e-09
2.36681e-06
6.33825e-08
2.24652e-06
1.20281e-07
2.05335e-06
1.93151e-07
1.87421e-06
1.79133e-07
1.77342e-06
1.00778e-07
1.68253e-06
9.08841e-08
1.62054e-06
6.19964e-08
1.56457e-06
5.59687e-08
1.51436e-06
5.0206e-08
1.46499e-06
4.93681e-08
1.41952e-06
4.54788e-08
1.38099e-06
3.85264e-08
1.34801e-06
3.29851e-08
1.31891e-06
2.90998e-08
1.31835e-06
5.56383e-10
1.29345e-06
2.48926e-08
1.24011e-06
5.33408e-08
1.23008e-06
1.00225e-08
1.17491e-06
5.51654e-08
1.08338e-06
9.15188e-08
9.58101e-07
1.25271e-07
9.2479e-07
3.3294e-08
9.80621e-07
-5.58465e-08
9.89958e-07
-9.35357e-09
9.99573e-07
-9.62959e-09
9.87716e-07
1.18417e-08
9.75048e-07
1.26503e-08
9.50671e-07
2.43569e-08
9.27127e-07
2.35234e-08
8.91934e-07
3.51739e-08
8.68661e-07
2.32553e-08
8.43069e-07
2.55769e-08
8.21049e-07
2.2005e-08
7.96182e-07
2.48481e-08
7.76603e-07
1.95496e-08
7.22994e-07
5.3579e-08
6.81092e-07
4.18796e-08
6.01389e-07
7.9702e-08
5.03549e-07
9.78689e-08
4.42538e-07
6.10809e-08
2.52098e-07
1.90637e-07
2.13902e-07
3.84972e-08
4.36681e-07
-2.22241e-07
8.48408e-07
-4.10772e-07
1.26792e-06
-4.18649e-07
1.69035e-06
-4.21666e-07
2.03769e-06
-3.46698e-07
2.29378e-06
-2.55512e-07
2.46025e-06
-1.6596e-07
2.58072e-06
-1.19975e-07
2.67888e-06
-9.76517e-08
2.76588e-06
-8.65937e-08
2.82549e-06
-5.92437e-08
2.86422e-06
-3.84007e-08
2.89788e-06
-3.33214e-08
2.92811e-06
-2.99219e-08
2.96348e-06
-3.50249e-08
2.99695e-06
-3.32271e-08
3.01892e-06
-2.17662e-08
3.03532e-06
-1.62233e-08
3.05487e-06
-1.93979e-08
3.07669e-06
-2.16643e-08
3.09832e-06
-2.14936e-08
3.11966e-06
-2.12346e-08
3.14766e-06
-2.78947e-08
3.18145e-06
-3.36936e-08
3.21332e-06
-3.18026e-08
3.23938e-06
-2.60111e-08
3.26571e-06
-2.62945e-08
3.29511e-06
-2.93791e-08
3.33129e-06
-3.61507e-08
3.37192e-06
-4.05975e-08
3.41585e-06
-4.38983e-08
3.4649e-06
-4.90035e-08
3.51559e-06
-5.06534e-08
3.56435e-06
-4.87302e-08
3.61136e-06
-4.69916e-08
3.66332e-06
-5.19388e-08
3.72516e-06
-6.18164e-08
3.79797e-06
-7.27737e-08
3.87915e-06
-8.11623e-08
3.96366e-06
-8.4505e-08
4.05013e-06
-8.64846e-08
4.13733e-06
-8.72063e-08
4.22879e-06
-9.146e-08
4.32474e-06
-9.5961e-08
4.42307e-06
-9.83244e-08
4.52578e-06
-1.02703e-07
4.6342e-06
-1.08419e-07
4.74711e-06
-1.12912e-07
4.86153e-06
-1.14431e-07
4.9755e-06
-1.13992e-07
5.08835e-06
-1.12881e-07
5.20099e-06
-1.12681e-07
5.31547e-06
-1.14525e-07
5.43303e-06
-1.17614e-07
5.55466e-06
-1.21678e-07
5.67999e-06
-1.25366e-07
5.80787e-06
-1.27918e-07
5.93764e-06
-1.29794e-07
6.06872e-06
-1.31105e-07
6.20103e-06
-1.32334e-07
6.3346e-06
-1.33602e-07
6.47001e-06
-1.35429e-07
6.60728e-06
-1.37284e-07
6.7458e-06
-1.38524e-07
6.88501e-06
-1.39183e-07
7.02377e-06
-1.38718e-07
7.16318e-06
-1.39373e-07
7.30276e-06
-1.39584e-07
7.44464e-06
-1.41911e-07
7.58684e-06
-1.42227e-07
7.72871e-06
-1.41851e-07
7.87108e-06
-1.42294e-07
8.01316e-06
-1.41977e-07
8.15552e-06
-1.42284e-07
8.29863e-06
-1.43032e-07
8.44347e-06
-1.44736e-07
8.59549e-06
-1.51896e-07
8.75244e-06
-1.5688e-07
8.92046e-06
-1.68004e-07
9.09125e-06
-1.70702e-07
-1.83021e-07
-2.04316e-05
1.20813e-05
-2.17856e-05
4.2242e-06
-2.28854e-05
2.52145e-06
-2.173e-05
-3.20265e-06
-1.83182e-05
-8.83545e-06
-1.36214e-05
-1.07545e-05
-9.17046e-06
-1.04266e-05
-4.83622e-06
-1.01593e-05
-8.6132e-07
-9.89728e-06
2.26527e-06
-8.75875e-06
4.21917e-06
-6.2781e-06
5.61564e-06
-4.65563e-06
7.15191e-06
-4.29719e-06
9.37278e-06
-4.83315e-06
1.24109e-05
-5.89146e-06
1.60709e-05
-6.41031e-06
1.95842e-05
-6.60065e-06
2.24754e-05
-6.04795e-06
2.45968e-05
-4.27354e-06
2.54627e-05
-1.43344e-06
2.46558e-05
1.31294e-06
2.26021e-05
3.26487e-06
1.98368e-05
5.19955e-06
1.69644e-05
6.73728e-06
1.47711e-05
6.62942e-06
1.39417e-05
4.17033e-06
1.47529e-05
5.94818e-07
1.63384e-05
-1.90507e-06
1.7647e-05
-2.76568e-06
1.86439e-05
-2.77142e-06
1.932e-05
-1.66611e-06
1.87411e-05
5.9741e-07
1.68231e-05
3.00498e-06
1.38269e-05
4.70678e-06
1.03058e-05
6.2253e-06
7.10373e-06
7.97403e-06
4.00286e-06
8.03573e-06
1.07145e-06
6.60526e-06
-1.74952e-06
5.90084e-06
-3.69235e-06
4.13993e-06
-4.58208e-06
1.55806e-06
-5.11371e-06
5.48075e-07
-5.62062e-06
5.9851e-07
-6.29054e-06
1.59619e-06
-6.85147e-06
1.88002e-06
-7.29804e-06
9.00164e-07
-7.1117e-06
-7.91148e-07
-6.68936e-06
-1.24107e-06
-6.24762e-06
-9.48179e-07
-6.05447e-06
2.70654e-07
-5.99694e-06
4.65081e-07
-6.01087e-06
-6.56989e-08
-5.53306e-06
-1.41995e-06
-4.43123e-06
-2.48904e-06
-3.06692e-06
-2.98885e-06
-1.66994e-06
-3.13138e-06
-4.37656e-07
-2.98501e-06
3.23874e-07
-2.36346e-06
7.67692e-07
-1.76614e-06
1.29866e-06
-1.26272e-06
2.14338e-06
-9.89504e-07
3.4049e-06
-9.60499e-07
4.5831e-06
-7.6947e-07
5.13188e-06
-3.13913e-07
5.18299e-06
-5.15326e-08
5.07324e-06
-1.29793e-07
5.05031e-06
-5.05344e-07
5.41956e-06
-1.37861e-06
6.41395e-06
-2.59205e-06
7.76582e-06
-3.36859e-06
9.22766e-06
-3.68586e-06
1.05603e-05
-3.4364e-06
1.13966e-05
-2.68016e-06
1.19968e-05
-2.15634e-06
1.26824e-05
-2.04411e-06
1.38158e-05
-2.31066e-06
1.55042e-05
-2.44493e-06
1.79218e-05
-1.69055e-06
1.9669e-05
-1.58898e-07
2.0723e-05
-1.97165e-07
2.04973e-05
1.1785e-06
1.91601e-05
1.73207e-06
1.84399e-05
1.13348e-06
1.739e-05
1.14578e-06
1.66852e-05
5.32132e-07
1.60401e-05
7.86079e-07
1.54441e-05
7.02589e-07
1.53567e-05
-5.07005e-08
1.57454e-05
-6.68078e-07
1.57937e-05
-3.06911e-07
1.59596e-05
-5.0738e-07
1.62344e-05
-6.1689e-07
1.64074e-05
-3.93225e-07
1.65885e-05
-3.57978e-07
1.68664e-05
-3.39242e-07
1.70424e-05
-2.69757e-07
1.72725e-05
-2.00053e-07
1.74043e-05
4.09321e-09
1.80095e-05
4.65503e-07
1.85421e-05
1.36373e-06
1.8702e-05
1.25797e-06
1.7758e-05
1.43828e-06
1.57375e-05
1.75446e-06
1.42552e-05
1.285e-06
1.33788e-05
3.3647e-07
1.30633e-05
-3.55513e-07
1.3073e-05
-4.67654e-07
1.31837e-05
-3.7895e-07
1.37354e-05
-8.30808e-07
1.45604e-05
-1.21334e-06
1.51451e-05
-9.09497e-07
1.5504e-05
-6.96873e-07
1.57719e-05
-5.42366e-07
1.59546e-05
-3.57493e-07
1.62309e-05
-2.07609e-07
1.65184e-05
-7.68613e-08
1.70312e-05
3.62392e-07
1.73254e-05
8.25514e-07
1.72213e-05
7.16409e-07
1.62819e-05
8.96305e-07
1.50024e-05
8.82602e-07
1.42983e-05
4.5784e-07
1.41407e-05
-2.98962e-07
1.42769e-05
-6.59006e-07
1.44173e-05
-4.6524e-07
1.48309e-05
-6.91903e-07
1.53265e-05
-7.72384e-07
1.56411e-05
-5.56314e-07
1.58772e-05
-4.97125e-07
1.60813e-05
-4.62731e-07
1.62499e-05
-3.89199e-07
1.64371e-05
-3.7434e-07
1.66281e-05
-3.5227e-07
1.67976e-05
-3.1575e-07
1.6937e-05
-2.74152e-07
1.70509e-05
-2.35672e-07
1.71488e-05
-2.04015e-07
1.72305e-05
-1.69838e-07
1.73018e-05
-1.43946e-07
1.73593e-05
-1.14116e-07
1.73925e-05
-6.85524e-08
1.74004e-05
-1.4927e-08
1.73874e-05
3.1337e-08
1.7353e-05
7.32259e-08
1.73012e-05
1.07802e-07
1.72249e-05
1.49658e-07
1.71193e-05
2.03099e-07
1.69831e-05
2.64211e-07
1.68299e-05
3.12748e-07
1.66603e-05
3.44102e-07
1.64674e-05
3.82646e-07
1.62444e-05
4.37165e-07
1.59923e-05
4.94812e-07
1.57199e-05
5.41271e-07
1.54305e-05
5.83765e-07
1.51169e-05
6.29126e-07
1.47737e-05
6.81293e-07
1.44012e-05
7.35964e-07
1.40035e-05
7.8689e-07
1.35846e-05
8.32256e-07
1.31457e-05
8.761e-07
1.26847e-05
9.21612e-07
1.21982e-05
9.69683e-07
1.16808e-05
1.02944e-06
1.11348e-05
1.09023e-06
1.05686e-05
1.1305e-06
9.98648e-06
1.16058e-06
9.38285e-06
1.20308e-06
8.75074e-06
1.2623e-06
8.09988e-06
1.31261e-06
7.43504e-06
1.33587e-06
6.76126e-06
1.34549e-06
6.07922e-06
1.36156e-06
5.38947e-06
1.37913e-06
4.69273e-06
1.40478e-06
3.98906e-06
1.42911e-06
3.28559e-06
1.4252e-06
2.58657e-06
1.40538e-06
1.90313e-06
1.36678e-06
1.24304e-06
1.31943e-06
6.02478e-07
1.28358e-06
-1.94305e-08
1.24624e-06
-6.24493e-07
1.21121e-06
-1.21646e-06
1.18377e-06
-1.79011e-06
1.14182e-06
-2.33911e-06
1.08597e-06
-2.85946e-06
1.02967e-06
-3.35427e-06
9.86414e-07
-3.82933e-06
9.5393e-07
-4.2885e-06
9.22682e-07
-4.73337e-06
8.90088e-07
-5.16341e-06
8.52249e-07
-5.57283e-06
8.10096e-07
-5.96051e-06
7.69162e-07
-6.32985e-06
7.34528e-07
-6.68438e-06
7.0844e-07
-7.02583e-06
6.85806e-07
-7.3536e-06
6.58498e-07
-7.66651e-06
6.26313e-07
-7.96191e-06
5.87123e-07
-8.24135e-06
5.54268e-07
-8.50697e-06
5.28516e-07
-8.76058e-06
5.06427e-07
-9.00126e-06
4.82411e-07
-9.22771e-06
4.55251e-07
-9.44145e-06
4.26572e-07
-9.64384e-06
4.01522e-07
-9.83632e-06
3.82172e-07
-1.00187e-05
3.66153e-07
-1.01891e-05
3.457e-07
-1.03468e-05
3.14591e-07
-1.04906e-05
2.8491e-07
-1.06242e-05
2.64857e-07
-1.07488e-05
2.47307e-07
-1.08647e-05
2.32337e-07
-1.09734e-05
2.21523e-07
-1.10742e-05
2.05766e-07
-1.11663e-05
1.84631e-07
-1.1247e-05
1.58487e-07
-1.13168e-05
1.37257e-07
-1.13788e-05
1.21922e-07
-1.1433e-05
1.08121e-07
-1.14801e-05
9.77273e-08
-1.15216e-05
8.74549e-08
-1.1557e-05
7.40344e-08
-1.15869e-05
5.76279e-08
-1.16073e-05
3.81598e-08
-1.16195e-05
2.21199e-08
-1.16251e-05
1.01809e-08
-1.16255e-05
2.78355e-09
-1.16232e-05
-1.81703e-09
-1.16156e-05
-1.2404e-08
-1.16002e-05
-2.85092e-08
-1.15782e-05
-4.52462e-08
-1.15496e-05
-5.81147e-08
-1.15162e-05
-6.69445e-08
-1.14795e-05
-7.34126e-08
-1.14408e-05
-7.85653e-08
-1.13992e-05
-8.46843e-08
-1.13529e-05
-9.20974e-08
-1.13014e-05
-1.00692e-07
-1.1243e-05
-1.11401e-07
-1.11814e-05
-1.21994e-07
-1.11165e-05
-1.31891e-07
-1.10489e-05
-1.38295e-07
-1.09785e-05
-1.42858e-07
-1.09055e-05
-1.45294e-07
-1.08301e-05
-1.46922e-07
-1.07506e-05
-1.55126e-07
-1.06663e-05
-1.70234e-07
-1.05781e-05
-1.78381e-07
-1.04888e-05
-1.80634e-07
-1.0398e-05
-1.8327e-07
-1.03041e-05
-1.86019e-07
-1.02066e-05
-1.91167e-07
-1.01048e-05
-2.00365e-07
-1.0001e-05
-2.0762e-07
-9.89555e-06
-2.125e-07
-9.78984e-06
-2.14054e-07
-9.68236e-06
-2.16611e-07
-9.56915e-06
-2.24752e-07
-9.4514e-06
-2.32678e-07
-9.33167e-06
-2.38638e-07
-9.20981e-06
-2.45281e-07
-9.08576e-06
-2.49429e-07
-8.96091e-06
-2.49487e-07
-8.8352e-06
-2.49165e-07
-8.7065e-06
-2.54043e-07
-8.57381e-06
-2.65801e-07
-8.43664e-06
-2.75458e-07
-8.29731e-06
-2.79631e-07
-8.15654e-06
-2.82957e-07
-8.01392e-06
-2.86883e-07
-7.86837e-06
-2.9014e-07
-7.72008e-06
-2.92345e-07
-7.56953e-06
-2.96868e-07
-7.41745e-06
-3.03995e-07
-7.2628e-06
-3.11163e-07
-7.10474e-06
-3.17568e-07
-6.94333e-06
-3.23525e-07
-6.77836e-06
-3.30286e-07
-6.61094e-06
-3.3515e-07
-6.44266e-06
-3.35174e-07
-6.27216e-06
-3.37395e-07
-6.09815e-06
-3.46697e-07
-5.91942e-06
-3.57882e-07
-5.7383e-06
-3.62835e-07
-5.55559e-06
-3.66716e-07
-5.3703e-06
-3.72211e-07
-5.18092e-06
-3.79049e-07
-4.98866e-06
-3.82165e-07
-4.7935e-06
-3.87e-07
-4.59527e-06
-3.94378e-07
-4.39529e-06
-4.00813e-07
-4.19344e-06
-4.05977e-07
-3.98872e-06
-4.11749e-07
-3.78009e-06
-4.17804e-07
-3.56824e-06
-4.21186e-07
-3.35472e-06
-4.2429e-07
-3.14172e-06
-4.2588e-07
-2.92876e-06
-4.28323e-07
-2.71375e-06
-4.32854e-07
-2.49616e-06
-4.36572e-07
-2.27798e-06
-4.35536e-07
-2.06148e-06
-4.32566e-07
-1.8478e-06
-4.29304e-07
-1.63522e-06
-4.28054e-07
-1.42302e-06
-4.25813e-07
-1.21332e-06
-4.19541e-07
-1.0082e-06
-4.10913e-07
-8.0824e-07
-4.0196e-07
-6.12582e-07
-3.93572e-07
-4.21447e-07
-3.83538e-07
-2.35937e-07
-3.71011e-07
-5.72439e-08
-3.56958e-07
1.14022e-07
-3.42611e-07
2.78866e-07
-3.29827e-07
4.38098e-07
-3.18047e-07
5.91425e-07
-3.05905e-07
7.3853e-07
-2.93447e-07
8.79409e-07
-2.81148e-07
1.01421e-06
-2.6921e-07
1.14341e-06
-2.58095e-07
1.26732e-06
-2.47496e-07
1.38616e-06
-2.37198e-07
1.50005e-06
-2.27255e-07
1.60912e-06
-2.17766e-07
1.71349e-06
-2.08587e-07
1.81329e-06
-1.99475e-07
1.90883e-06
-1.90824e-07
2.00041e-06
-1.82868e-07
2.08831e-06
-1.75578e-07
2.17259e-06
-1.68532e-07
2.25332e-06
-1.61501e-07
2.33059e-06
-1.54467e-07
2.40453e-06
-1.47627e-07
2.4753e-06
-1.41343e-07
2.54317e-06
-1.35752e-07
2.60854e-06
-1.30784e-07
2.67152e-06
-1.25882e-07
2.73206e-06
-1.20934e-07
2.79013e-06
-1.16028e-07
2.84576e-06
-1.11223e-07
2.89897e-06
-1.06527e-07
2.94986e-06
-1.02007e-07
2.99877e-06
-9.80315e-08
3.04595e-06
-9.44043e-08
3.09134e-06
-9.07269e-08
3.13491e-06
-8.70389e-08
3.17664e-06
-8.33327e-08
3.21652e-06
-7.96207e-08
3.25452e-06
-7.58847e-08
3.29068e-06
-7.22384e-08
3.32516e-06
-6.88864e-08
3.35799e-06
-6.5625e-08
3.38916e-06
-6.2321e-08
3.41865e-06
-5.89868e-08
3.44629e-06
-5.53535e-08
3.47215e-06
-5.18535e-08
3.49639e-06
-4.85772e-08
3.51904e-06
-4.53488e-08
3.54006e-06
-4.20675e-08
3.55943e-06
-3.87558e-08
3.5771e-06
-3.54256e-08
3.59304e-06
-3.1903e-08
3.60725e-06
-2.82319e-08
3.61981e-06
-2.47282e-08
3.63071e-06
-2.14969e-08
3.64002e-06
-1.8579e-08
3.64757e-06
-1.53013e-08
3.65308e-06
-1.13015e-08
3.65674e-06
-7.4632e-09
3.65897e-06
-4.4685e-09
3.6599e-06
-1.82195e-09
3.65943e-06
9.75957e-10
3.65727e-06
4.23011e-09
3.65317e-06
7.89496e-09
3.64737e-06
1.11461e-08
3.6401e-06
1.44338e-08
3.63163e-06
1.7509e-08
3.6218e-06
2.02721e-08
3.61053e-06
2.2558e-08
3.5978e-06
2.50978e-08
3.5836e-06
2.79744e-08
3.56795e-06
3.08322e-08
3.55113e-06
3.33533e-08
3.53316e-06
3.58445e-08
3.51405e-06
3.80242e-08
3.49379e-06
4.0054e-08
3.47238e-06
4.24152e-08
3.45002e-06
4.47371e-08
3.42677e-06
4.67211e-08
3.40261e-06
4.82676e-08
3.37741e-06
5.00211e-08
3.35127e-06
5.18047e-08
3.32438e-06
5.32667e-08
3.29702e-06
5.441e-08
3.26915e-06
5.59801e-08
3.24062e-06
5.75337e-08
3.21105e-06
5.90782e-08
3.18057e-06
6.04046e-08
3.15001e-06
6.04677e-08
3.11939e-06
6.07403e-08
3.08857e-06
6.10519e-08
3.05686e-06
6.35526e-08
3.02528e-06
6.45208e-08
2.99301e-06
6.53172e-08
2.96162e-06
6.30036e-08
2.92922e-06
6.47847e-08
2.89554e-06
6.66718e-08
2.86182e-06
6.76772e-08
2.82772e-06
6.82034e-08
2.79493e-06
6.49314e-08
2.76226e-06
6.55428e-08
2.73404e-06
5.97162e-08
2.70487e-06
6.11461e-08
2.67039e-06
6.61616e-08
2.63757e-06
6.04882e-08
2.59977e-06
6.5414e-08
2.56666e-06
6.57175e-08
2.55843e-06
3.50517e-08
2.54969e-06
4.13064e-08
2.51988e-06
6.28973e-08
2.49102e-06
3.55616e-08
2.40635e-06
9.51051e-08
2.2759e-06
1.63957e-07
2.08404e-06
1.99527e-07
1.92177e-06
2.25638e-07
1.82681e-06
2.15236e-07
1.76593e-06
2.54033e-07
1.74012e-06
2.04936e-07
1.68856e-06
1.5233e-07
1.6432e-06
1.36247e-07
1.58772e-06
1.17479e-07
1.54137e-06
1.0233e-07
1.49379e-06
9.77967e-08
1.45297e-06
9.01973e-08
1.41447e-06
8.39834e-08
1.39715e-06
5.58556e-08
1.36186e-06
6.82728e-08
1.29478e-06
9.61858e-08
1.25262e-06
4.27197e-08
1.18352e-06
9.40045e-08
1.10989e-06
1.26987e-07
1.00273e-06
1.17196e-07
9.98235e-07
5.96638e-08
1.06376e-06
2.59867e-08
1.10093e-06
8.80992e-08
1.10593e-06
2.83022e-08
1.06023e-06
-1.01422e-08
1.03725e-06
1.3635e-08
1.00458e-06
2.30599e-08
9.80886e-07
3.55404e-08
9.61867e-07
3.1672e-08
9.44662e-07
4.15734e-08
9.28312e-07
3.98908e-08
9.15582e-07
4.79349e-08
9.00559e-07
3.83153e-08
8.80927e-07
4.52476e-08
8.2085e-07
8.21181e-08
7.71687e-07
7.40452e-08
7.00438e-07
9.08324e-08
6.01199e-07
1.52851e-07
5.65606e-07
7.74793e-08
4.8565e-07
1.59598e-07
6.83159e-07
-9.97694e-08
1.07506e-06
-3.3116e-07
1.54554e-06
-2.80547e-07
1.93143e-06
-3.48341e-07
2.20541e-06
-4.97643e-07
2.34611e-06
-5.5282e-07
2.42946e-06
-5.03241e-07
2.47466e-06
-4.68033e-07
2.54965e-06
-4.22731e-07
2.64433e-06
-3.51146e-07
2.73197e-06
-2.54464e-07
2.79919e-06
-1.8797e-07
2.85318e-06
-1.52336e-07
2.89552e-06
-1.29535e-07
2.93435e-06
-9.86151e-08
2.97195e-06
-7.64812e-08
3.00629e-06
-6.80951e-08
3.03849e-06
-6.25207e-08
3.06776e-06
-6.46592e-08
3.08933e-06
-5.51398e-08
3.10752e-06
-4.02708e-08
3.12672e-06
-3.57099e-08
3.14746e-06
-4.04104e-08
3.17037e-06
-4.48285e-08
3.19219e-06
-4.35504e-08
3.21629e-06
-4.55516e-08
3.24306e-06
-5.48797e-08
3.27077e-06
-6.16031e-08
3.2999e-06
-6.1116e-08
3.33096e-06
-5.72312e-08
3.36434e-06
-5.98168e-08
3.40015e-06
-6.53094e-08
3.43784e-06
-7.39494e-08
3.48005e-06
-8.29062e-08
3.52698e-06
-9.09118e-08
3.57641e-06
-9.85178e-08
3.62732e-06
-1.01643e-07
3.67912e-06
-1.00609e-07
3.73334e-06
-1.01286e-07
3.79257e-06
-1.11248e-07
3.85665e-06
-1.25965e-07
3.92759e-06
-1.43791e-07
4.00268e-06
-1.56323e-07
4.0811e-06
-1.62989e-07
4.1638e-06
-1.69247e-07
4.25118e-06
-1.74634e-07
4.34398e-06
-1.84296e-07
4.44074e-06
-1.92737e-07
4.54029e-06
-1.97892e-07
4.64204e-06
-2.0445e-07
4.74653e-06
-2.12901e-07
4.85364e-06
-2.2e-07
4.96323e-06
-2.24e-07
5.07524e-06
-2.25992e-07
5.19014e-06
-2.27772e-07
5.30799e-06
-2.30515e-07
5.42809e-06
-2.34611e-07
5.55045e-06
-2.39931e-07
5.6744e-06
-2.45578e-07
5.8003e-06
-2.51166e-07
5.92865e-06
-2.56172e-07
6.05901e-06
-2.60072e-07
6.19087e-06
-2.6292e-07
6.32385e-06
-2.65294e-07
6.45826e-06
-2.68007e-07
6.59427e-06
-2.7143e-07
6.73174e-06
-2.74715e-07
6.86993e-06
-2.76648e-07
7.00852e-06
-2.77674e-07
7.14733e-06
-2.77521e-07
7.2873e-06
-2.7937e-07
7.42901e-06
-2.81411e-07
7.57115e-06
-2.84181e-07
7.71314e-06
-2.84357e-07
7.85518e-06
-2.83949e-07
7.99723e-06
-2.8442e-07
8.14073e-06
-2.8558e-07
8.28391e-06
-2.85614e-07
8.42733e-06
-2.86621e-07
8.57158e-06
-2.89111e-07
8.71527e-06
-2.95762e-07
8.85902e-06
-3.00892e-07
8.99933e-06
-3.08466e-07
9.13978e-06
-3.11124e-07
-3.17679e-07
-1.82127e-05
1.20433e-05
-1.84061e-05
4.41702e-06
-1.81956e-05
2.3108e-06
-1.65437e-05
-4.85456e-06
-1.42661e-05
-1.11128e-05
-1.18511e-05
-1.3169e-05
-8.81613e-06
-1.34611e-05
-5.87134e-06
-1.31034e-05
-3.67865e-06
-1.20887e-05
-2.71773e-06
-9.71646e-06
-2.82304e-06
-6.16903e-06
-2.60673e-06
-4.87159e-06
-1.92426e-06
-4.98104e-06
-6.94591e-07
-6.06359e-06
5.83991e-07
-7.16932e-06
1.70905e-06
-7.53437e-06
2.08378e-06
-6.97435e-06
1.68386e-06
-5.64712e-06
1.24671e-06
-3.83564e-06
7.92247e-07
-9.78407e-07
2.01793e-08
2.08553e-06
-8.7287e-07
4.15842e-06
-8.63139e-07
5.19023e-06
3.46108e-07
5.52829e-06
2.48333e-06
4.49231e-06
4.90246e-06
1.75121e-06
6.82035e-06
-1.32327e-06
7.78412e-06
-2.86896e-06
7.86869e-06
-2.85035e-06
7.32233e-06
-2.2251e-06
6.32826e-06
-6.72277e-07
4.9138e-06
2.01147e-06
3.2525e-06
4.66589e-06
1.05492e-06
6.90408e-06
-1.16187e-06
8.44187e-06
-2.36488e-06
9.17687e-06
-3.27061e-06
8.94146e-06
-4.86607e-06
8.20151e-06
-6.30421e-06
7.33749e-06
-6.74745e-06
4.58123e-06
-6.88854e-06
1.69743e-06
-7.05769e-06
7.16973e-07
-7.2196e-06
7.63128e-07
-7.35147e-06
1.72927e-06
-7.29867e-06
1.82733e-06
-7.19613e-06
7.95086e-07
-6.87648e-06
-1.11221e-06
-6.48896e-06
-1.62842e-06
-6.0534e-06
-1.38152e-06
-5.70259e-06
-7.89928e-08
-5.50811e-06
2.70508e-07
-5.41773e-06
-1.57003e-07
-5.21336e-06
-1.62539e-06
-4.67355e-06
-3.02878e-06
-4.0036e-06
-3.65863e-06
-3.33184e-06
-3.80297e-06
-2.76414e-06
-3.55208e-06
-2.35446e-06
-2.77206e-06
-1.76449e-06
-2.3561e-06
-5.63879e-07
-2.46332e-06
1.17337e-06
-2.72763e-06
3.18722e-06
-2.97477e-06
5.20149e-06
-2.7848e-06
6.49458e-06
-1.61063e-06
6.89959e-06
-4.56908e-07
6.90744e-06
-1.37287e-07
6.71814e-06
-3.13621e-07
6.48012e-06
-1.13896e-06
6.74588e-06
-2.85776e-06
7.54747e-06
-4.17048e-06
8.50184e-06
-4.64074e-06
9.5891e-06
-4.5273e-06
1.0593e-05
-3.68687e-06
1.13331e-05
-2.89589e-06
1.20034e-05
-2.71118e-06
1.26906e-05
-2.99545e-06
1.35367e-05
-3.29067e-06
1.53497e-05
-3.50347e-06
1.83666e-05
-3.17565e-06