/*--------------------------------*- C++ -*----------------------------------*\
| =========                 |                                                 |
| \\      /  F ield         | OpenFOAM: The Open Source CFD Toolbox           |
|  \\    /   O peration     | Version:  v2006                                 |
|   \\  /    A nd           | Website:  www.openfoam.com                      |
|    \\/     M anipulation  |                                                 |
\*---------------------------------------------------------------------------*/
FoamFile
{
    version     2.0;
    format      ascii;
    class       volScalarField;
    location    "9.5";
    object      omega;
}
// * * * * * * * * * * * * * * * * * * * * * * * * * * * * * * * * * * * * * //

dimensions      [0 0 -1 0 0 0 0];


internalField   nonuniform List<scalar> 
33000
(
0.805458
0.805624
0.80529
0.804708
0.804152
0.803817
0.80364
0.803557
0.803525
0.803565
0.803739
0.803997
0.804286
0.804551
0.804826
0.805126
0.805437
0.805725
0.805938
0.806095
0.806305
0.806653
0.807288
0.80859
0.81129
0.816172
0.823515
0.83455
0.847007
0.85636
0.860799
0.863094
0.865235
0.868199
0.872803
0.882156
0.901184
0.931735
0.963164
0.984129
0.994088
0.996958
0.998782
0.999632
0.997114
0.993119
0.984747
0.981684
0.98361
0.987124
0.984004
0.977165
0.966304
0.958965
0.954789
0.953762
0.956001
0.961782
0.970663
0.981922
0.990869
0.994472
0.993834
0.98991
0.983359
0.973682
0.961472
0.94694
0.932818
0.921752
0.913737
0.908329
0.904265
0.901167
0.898492
0.896594
0.896435
0.896931
0.897308
0.899194
0.90015
0.902804
0.906555
0.911359
0.917492
0.924581
0.930614
0.935116
0.937932
0.939474
0.939033
0.937019
0.933492
0.9279
0.920868
0.912319
0.905134
0.898854
0.895174
0.892366
0.892329
0.893556
0.895077
0.89664
0.897159
0.897744
0.899155
0.900307
0.900617
0.900109
0.899425
0.898179
0.896641
0.894447
0.891472
0.887412
0.883589
0.879911
0.878724
0.878687
0.878765
0.87952
0.879648
0.880165
0.881356
0.882241
0.882821
0.883244
0.88348
0.883702
0.883957
0.884162
0.884264
0.884254
0.884158
0.884014
0.883859
0.883708
0.883548
0.883367
0.883162
0.882933
0.882672
0.882366
0.882001
0.881575
0.881108
0.880618
0.880105
0.87955
0.878925
0.878235
0.877509
0.876768
0.876005
0.875208
0.874376
0.873513
0.872631
0.871737
0.870833
0.869915
0.86898
0.868032
0.867083
0.866144
0.865197
0.864231
0.863276
0.862368
0.861503
0.860653
0.859799
0.858978
0.858239
0.857607
0.85707
0.856586
0.856118
0.855653
0.855211
0.854822
0.854502
0.854241
0.854014
0.853779
0.853506
0.853212
0.852944
0.85272
0.852517
0.852304
0.852065
0.851814
0.851584
0.851414
0.851322
0.851293
0.851278
0.851237
0.85118
0.851147
0.851173
0.851248
0.851339
0.851419
0.851491
0.851585
0.851729
0.8519
0.852039
0.852126
0.85222
0.852367
0.852559
0.852785
0.853022
0.85322
0.853365
0.853498
0.853657
0.853855
0.85408
0.854314
0.854519
0.854663
0.854772
0.854872
0.854989
0.855128
0.855277
0.855392
0.855436
0.855434
0.85542
0.855407
0.855399
0.855377
0.855334
0.855271
0.855189
0.855073
0.854905
0.854695
0.854478
0.854271
0.85407
0.853867
0.853615
0.853278
0.852933
0.852612
0.852291
0.851966
0.851623
0.851237
0.850821
0.850401
0.849981
0.84956
0.849122
0.848663
0.848187
0.847697
0.847212
0.84674
0.846269
0.845766
0.845221
0.844666
0.844126
0.84359
0.843051
0.842515
0.84198
0.841421
0.840837
0.840248
0.839664
0.839082
0.838498
0.837917
0.837343
0.836763
0.836157
0.835543
0.83494
0.834341
0.83374
0.83314
0.832543
0.831938
0.83132
0.830697
0.830071
0.829443
0.828818
0.828201
0.827587
0.82698
0.826381
0.825792
0.825218
0.824658
0.824106
0.82356
0.823027
0.822514
0.822024
0.82156
0.821124
0.820719
0.820349
0.820012
0.819705
0.819424
0.819168
0.818933
0.81872
0.818528
0.818358
0.818209
0.818083
0.817978
0.817895
0.81783
0.817785
0.817757
0.817745
0.817747
0.817761
0.817784
0.817818
0.817859
0.817907
0.817959
0.818013
0.818068
0.818121
0.818172
0.818218
0.81826
0.818296
0.818326
0.818351
0.818369
0.818381
0.818387
0.818386
0.818378
0.818364
0.818343
0.818314
0.818278
0.818234
0.818183
0.818124
0.818059
0.817986
0.817906
0.81782
0.817727
0.817628
0.817523
0.817412
0.817296
0.817175
0.817049
0.816918
0.816783
0.816644
0.816501
0.816355
0.816204
0.816051
0.815893
0.815733
0.815569
0.815402
0.815233
0.81506
0.814884
0.814706
0.814525
0.814343
0.814159
0.813973
0.813787
0.8136
0.813412
0.813224
0.813037
0.812849
0.812663
0.812477
0.812293
0.81211
0.81193
0.811751
0.811575
0.811401
0.81123
0.811061
0.810897
0.810736
0.810579
0.810425
0.810276
0.810132
0.809992
0.809858
0.809727
0.8096
0.809477
0.809357
0.809242
0.809131
0.80902
0.808909
0.808806
0.808708
0.808609
0.808522
0.808397
0.808261
0.808177
0.808121
0.807996
0.808066
0.80822
0.808639
0.808759
0.809002
0.8091
0.809211
0.809249
0.809288
0.809298
0.809317
0.809312
0.809322
0.809323
0.809263
0.809237
0.809184
0.808955
0.808809
0.808562
0.808485
0.808239
0.808328
0.808374
0.808464
0.80851
0.808572
0.808604
0.808638
0.808609
0.808603
0.80859
0.808532
0.808575
0.808415
0.808191
0.808222
0.808176
0.807872
0.808417
0.809145
0.810841
0.811234
0.811894
0.812326
0.81307
0.813859
0.814734
0.815508
0.816178
0.816749
0.81727
0.81772
0.818083
0.818389
0.818639
0.818865
0.819086
0.81928
0.81944
0.819585
0.819726
0.819857
0.819962
0.820059
0.820166
0.820281
0.820383
0.820475
0.820555
0.82063
0.820702
0.820768
0.820834
0.820904
0.820971
0.821024
0.82106
0.821086
0.821111
0.821141
0.821175
0.821211
0.821243
0.821271
0.8213
0.821327
0.82135
0.821374
0.821405
0.821443
0.821483
0.821521
0.821555
0.821584
0.821609
0.821633
0.821658
0.821685
0.821714
0.821743
0.821773
0.821803
0.821832
0.821863
0.821896
0.821933
0.821969
0.822007
0.82204
0.822082
0.82212
0.82217
0.822205
0.822252
0.822316
0.82233
0.822253
0.822063
0.820402
0.817436
0.809617
0.878685
0.782924
0.77074
0.754566
0.723734
0.695651
0.678204
0.661072
0.656481
0.636785
0.627313
0.637356
0.718301
0.796201
0.859715
0.911714
0.948458
0.979474
1.01836
1.06206
1.10992
1.14416
1.15716
1.1733
1.23464
1.39346
1.64329
1.82683
1.88193
1.89584
1.87194
1.8228
1.82627
1.86958
1.82989
1.68838
1.61165
1.57427
1.50237
1.35163
1.14821
0.9621
0.866049
0.832848
0.803723
0.751929
0.673407
0.633435
0.638622
0.65797
0.644962
0.599907
0.541621
0.499475
0.473143
0.455678
0.446597
0.450279
0.47277
0.508508
0.54665
0.583133
0.599546
0.603708
0.608566
0.605566
0.590311
0.574595
0.571449
0.579015
0.598875
0.637179
0.696584
0.774304
0.849691
0.917526
0.983206
1.09461
1.15748
1.1456
1.21028
1.34252
1.42556
1.45477
1.3856
1.32179
1.24102
1.15853
1.07817
0.973658
0.866922
0.770619
0.694754
0.65125
0.64371
0.66652
0.716379
0.790398
0.88867
0.983511
1.06759
1.13853
1.19191
1.13761
1.03857
0.912561
0.784951
0.652002
0.536915
0.447493
0.375092
0.322902
0.292362
0.281402
0.288514
0.308709
0.343682
0.371375
0.380073
0.394828
0.406915
0.371097
0.33115
0.294358
0.265969
0.241224
0.223202
0.209983
0.201811
0.19719
0.195078
0.194026
0.192924
0.192359
0.19295
0.194496
0.196124
0.197404
0.198572
0.200073
0.201996
0.203767
0.204954
0.205337
0.205567
0.20647
0.208156
0.210166
0.211161
0.211222
0.211719
0.21311
0.214798
0.216069
0.217092
0.218063
0.21924
0.220507
0.221622
0.222426
0.223069
0.223669
0.224368
0.225427
0.226392
0.226404
0.225799
0.225563
0.225968
0.226128
0.225128
0.223206
0.221301
0.219643
0.218549
0.217708
0.216044
0.213452
0.210046
0.206147
0.202609
0.199462
0.196691
0.194281
0.1915
0.187966
0.184069
0.180492
0.177518
0.174828
0.172022
0.1688
0.165183
0.161521
0.158186
0.155393
0.153015
0.150564
0.147701
0.14434
0.140905
0.137852
0.13519
0.132674
0.130069
0.127295
0.124503
0.121997
0.11979
0.117522
0.114782
0.111812
0.109237
0.107096
0.105249
0.103552
0.10166
0.0993923
0.0969564
0.0947474
0.0929388
0.0914435
0.0901191
0.0887659
0.087221
0.0855538
0.0839767
0.0826576
0.0816175
0.0807473
0.0798932
0.0789343
0.0778823
0.0768927
0.0760783
0.0754587
0.0749993
0.0746362
0.0743153
0.0740047
0.0736842
0.0733378
0.0730094
0.0727917
0.0727649
0.0729259
0.0731468
0.0732808
0.0732679
0.0732057
0.0732954
0.0735734
0.0739169
0.0742199
0.0744344
0.0745701
0.0747272
0.074965
0.0752488
0.0755107
0.0756952
0.0758239
0.0759779
0.0762426
0.0766428
0.0770708
0.0773358
0.0773636
0.0772977
0.0773218
0.0775051
0.0778136
0.0781852
0.0785309
0.0787508
0.0788029
0.0787768
0.0787815
0.0788514
0.0789964
0.0792544
0.0795973
0.0798626
0.0799177
0.0798398
0.0798152
0.0798965
0.08004
0.0802424
0.0804629
0.0806103
0.0806277
0.0805806
0.0805486
0.0805636
0.0806497
0.0807803
0.0808693
0.0808511
0.0807443
0.080599
0.0805054
0.0804935
0.0804574
0.0803058
0.0800428
0.0797692
0.0795311
0.0792746
0.078945
0.078552
0.0781831
0.0779031
0.077659
0.0773295
0.0768991
0.0764683
0.0760952
0.0757779
0.0755002
0.0752578
0.0750558
0.074903
0.074813
0.0747686
0.0747503
0.074793
0.0749278
0.0751229
0.0753203
0.0755085
0.0757346
0.0760455
0.0764434
0.0768441
0.0771353
0.0772939
0.0774165
0.0775639
0.0777279
0.0778749
0.0779782
0.0780339
0.078064
0.0780865
0.0780722
0.0780002
0.0778778
0.0777369
0.0776104
0.0775033
0.0773869
0.0772302
0.0770402
0.0768511
0.0766773
0.076512
0.0763543
0.0761777
0.0759746
0.075763
0.0755566
0.0753549
0.0751702
0.0750217
0.0748801
0.074694
0.0744298
0.0741291
0.0738804
0.0736984
0.0734735
0.0731431
0.0727615
0.0724072
0.0721026
0.0718219
0.0715395
0.0712877
0.0710249
0.0706523
0.0701635
0.0697158
0.0693434
0.0689979
0.0686483
0.0682728
0.0678408
0.0673755
0.0669635
0.0665861
0.0661622
0.0656464
0.065137
0.0646585
0.0641898
0.0637359
0.0633578
0.0629522
0.0624577
0.0619102
0.0613254
0.0608144
0.0603517
0.0600847
0.0596915
0.0591963
0.0584355
0.0580249
0.0575777
0.0571688
0.0566397
0.0558519
0.0554119
0.0546375
0.0541806
0.0537321
0.0526963
0.0523216
0.0526951
0.0511331
0.0515798
0.0525341
0.0493791
0.051406
0.0589824
0.0591114
0.0691053
0.0810122
0.0944951
0.0864011
0.0673906
0.0636132
0.0569579
0.0550666
0.0527718
0.0516201
0.050319
0.0492289
0.0490302
0.0517658
0.0514911
0.0569027
0.0612413
0.0542661
0.0552656
0.0553213
0.0524617
0.0401072
0.0369746
0.036419
0.0356863
0.0358331
0.0364979
0.0378309
0.0390394
0.0403866
0.0406474
0.0420051
0.0426973
0.0475661
0.0617273
0.0789541
0.103943
0.136438
0.161496
0.167292
0.179157
0.225877
0.1955
0.110113
0.0884567
0.0779115
0.0722158
0.0666539
0.0618011
0.0576736
0.0541868
0.0517655
0.0508637
0.0505591
0.0503133
0.0503209
0.0504006
0.0509983
0.0520136
0.0527992
0.053156
0.053669
0.0543756
0.054919
0.0550862
0.0553386
0.0560756
0.0570846
0.0578007
0.0581778
0.0582645
0.0584934
0.0587966
0.0590427
0.0596105
0.0604486
0.0611234
0.0611645
0.0606815
0.0601113
0.0597971
0.0599194
0.0602318
0.0606943
0.060918
0.0611067
0.0614368
0.061608
0.0616525
0.061836
0.0623153
0.0629987
0.0637273
0.0643298
0.0646909
0.0648484
0.0648832
0.0648984
0.0649782
0.0651317
0.0653348
0.0655531
0.065747
0.0658921
0.0660164
0.0661763
0.0663902
0.0666715
0.0668767
0.0670298
0.0670663
0.0672294
0.0674098
0.0675599
0.0677204
0.0680898
0.0686227
0.0694107
0.0712461
0.0733138
0.0749011
0.0655654
0.0355719
0.556637
0.522005
0.480557
0.389868
0.297934
0.240496
0.221647
0.20942
0.202164
0.197723
0.204013
0.241326
0.302905
0.364368
0.431978
0.515133
0.611811
0.721907
0.841822
0.952898
1.08356
1.24503
1.35227
1.44715
1.59118
1.83379
2.10136
2.30448
2.31994
2.35145
2.35907
2.42579
2.4134
2.31876
2.13873
1.95041
1.84005
1.683
1.48957
1.26697
0.987046
0.740429
0.629773
0.600582
0.57987
0.544337
0.471837
0.427945
0.429121
0.441068
0.429965
0.411251
0.376589
0.334135
0.304565
0.289096
0.284735
0.29329
0.31141
0.333853
0.349779
0.360289
0.372555
0.387899
0.399253
0.402308
0.397659
0.382195
0.352346
0.328788
0.321053
0.332745
0.359768
0.39272
0.425177
0.452486
0.484403
0.536305
0.630487
0.719282
0.837742
0.934417
0.983004
1.09496
1.22643
1.35975
1.46401
1.45346
1.37199
1.27623
1.12792
0.994632
0.858025
0.742978
0.658839
0.605722
0.583642
0.587454
0.610466
0.652824
0.683011
0.714298
0.738501
0.729121
0.709995
0.683152
0.636365
0.571881
0.499096
0.43126
0.372038
0.311872
0.258111
0.207078
0.168514
0.147863
0.145887
0.152362
0.155963
0.160144
0.165502
0.16522
0.177616
0.182814
0.157854
0.128002
0.101805
0.0846553
0.0710842
0.0624813
0.0560154
0.0521991
0.0500056
0.0491456
0.0492846
0.0500201
0.0507927
0.0513569
0.0518512
0.0524134
0.0531885
0.0540183
0.0546774
0.0551013
0.0555465
0.0562354
0.0570901
0.0578858
0.0583849
0.0587881
0.05946
0.060385
0.0612341
0.0618193
0.0624296
0.063254
0.0642238
0.0650824
0.0657556
0.0662213
0.0665841
0.0670123
0.0675639
0.0682072
0.0686968
0.0688286
0.0686432
0.0685205
0.0686657
0.0687017
0.0683493
0.0675529
0.0665831
0.0656882
0.0649809
0.0644142
0.0635834
0.0623331
0.0606858
0.0587782
0.0569498
0.0552614
0.0537396
0.0523996
0.0509864
0.0493184
0.0474394
0.0455711
0.043929
0.0424994
0.0411355
0.0396885
0.0380954
0.0364283
0.0348547
0.0335068
0.0323518
0.0312397
0.0300347
0.0286913
0.0273359
0.0261055
0.0250256
0.0240162
0.0230008
0.0219773
0.0209853
0.0200791
0.0192556
0.0184359
0.0175446
0.0166217
0.0157947
0.0150903
0.0144729
0.0139046
0.0133256
0.0126985
0.0120492
0.0114442
0.010927
0.0104897
0.0101057
0.00973811
0.00935166
0.00895028
0.00856759
0.00823375
0.00795775
0.00772057
0.00749383
0.00726131
0.00702687
0.00681099
0.00662762
0.00647954
0.00635844
0.0062519
0.00615571
0.00606896
0.00599162
0.00592181
0.00586114
0.00581935
0.00580567
0.00581931
0.0058458
0.0058696
0.00588371
0.00589618
0.00592662
0.00597808
0.00603869
0.00610273
0.006166
0.0062245
0.00628676
0.0063547
0.00642117
0.00648439
0.00654397
0.00660247
0.00666624
0.00674597
0.00684453
0.00694398
0.0070154
0.00705253
0.00708069
0.00712334
0.0071881
0.00726784
0.00735322
0.00743836
0.00751203
0.0075631
0.00759752
0.00762802
0.00766475
0.00771726
0.00779149
0.00787841
0.00795252
0.00799407
0.00801354
0.00804015
0.00808261
0.00813206
0.00818802
0.00824799
0.00829816
0.00833092
0.00835494
0.00837737
0.00840068
0.00843051
0.00846737
0.00850482
0.00853381
0.00854523
0.00853668
0.00852748
0.00853326
0.00854356
0.00853802
0.00850513
0.00846068
0.00842335
0.00839109
0.00834629
0.00828331
0.00821945
0.00816918
0.00812866
0.00807732
0.00800377
0.00792417
0.00785351
0.00779451
0.00774546
0.00770231
0.00766214
0.00762641
0.00759965
0.00758218
0.00757275
0.0075753
0.00759104
0.00761304
0.00763446
0.00765671
0.00768786
0.00773316
0.0077897
0.00784448
0.00788459
0.00790452
0.00791661
0.00792995
0.00794409
0.00795659
0.00796458
0.00796571
0.00796101
0.00795145
0.00793161
0.00790108
0.00786489
0.00782924
0.00779806
0.00777037
0.00774095
0.00770509
0.00766418
0.00762422
0.00758846
0.00755714
0.00752941
0.00749652
0.00745689
0.00741677
0.00737981
0.00734523
0.00731282
0.00728403
0.00725518
0.00722138
0.00717961
0.00713359
0.00709492
0.00706521
0.00702679
0.00697066
0.00690483
0.0068442
0.00679518
0.0067518
0.00670491
0.00665688
0.00660495
0.00654517
0.00647555
0.00641003
0.00635332
0.00629967
0.00624173
0.00618042
0.00611448
0.00604671
0.00598382
0.00592187
0.00585549
0.00578327
0.00571413
0.00564747
0.00557884
0.00551133
0.00545128
0.00539143
0.00532626
0.00525555
0.00517197
0.00509703
0.00502719
0.00498121
0.00491858
0.00485922
0.00475876
0.00469868
0.00464735
0.0045795
0.00449336
0.00438727
0.00434168
0.00421634
0.00418694
0.00416656
0.00402376
0.00403859
0.00424085
0.00401335
0.00429548
0.00495696
0.00507219
0.0056528
0.00640996
0.00696527
0.00731266
0.00735343
0.00824419
0.00690333
0.00533736
0.00486401
0.00436626
0.00403905
0.00390508
0.00397389
0.00417504
0.00416859
0.0045173
0.00498383
0.00472843
0.00481309
0.00471384
0.00369599
0.00291888
0.00258513
0.00271669
0.00233562
0.00223465
0.0022461
0.00231399
0.00236511
0.00246006
0.00252833
0.00262324
0.00286826
0.00332215
0.00454057
0.00640214
0.00986815
0.0149694
0.0214609
0.0231441
0.0246847
0.0305601
0.0287127
0.0238734
0.0320909
0.0181367
0.00807748
0.0065189
0.00572228
0.00523169
0.00485007
0.00456709
0.004269
0.00397526
0.00375311
0.00363267
0.0035586
0.00350668
0.00349063
0.00350036
0.00355567
0.00364412
0.00370853
0.00374778
0.00380239
0.00387451
0.003931
0.00396396
0.00401066
0.00409195
0.00419239
0.00427142
0.00433297
0.00437647
0.00441359
0.0044528
0.00450167
0.00458416
0.00468796
0.00476996
0.00478275
0.0047521
0.00470825
0.00469227
0.00471652
0.00475451
0.0048019
0.00483153
0.00486435
0.00491527
0.00495887
0.00499155
0.00503521
0.00510348
0.00518926
0.00527613
0.00535021
0.00540412
0.00543892
0.00546159
0.0054795
0.00549948
0.00552635
0.00556075
0.0055983
0.00563231
0.00565996
0.00568592
0.00571824
0.0057571
0.00580026
0.00583132
0.00585557
0.00587178
0.00589911
0.00592922
0.00595054
0.00597272
0.0060364
0.00612527
0.00623901
0.006508
0.00678859
0.00712086
0.00628098
0.0036824
0.325033
0.307578
0.277087
0.215823
0.160656
0.122661
0.107588
0.102374
0.106573
0.121341
0.142027
0.177595
0.234632
0.313414
0.424364
0.567925
0.732786
0.909897
1.09012
1.23926
1.36881
1.47006
1.55934
1.64592
1.74765
1.88342
2.05604
2.11453
2.02631
1.98253
1.99122
1.98759
1.97948
1.94475
1.85773
1.71494
1.54236
1.36399
1.18726
0.905027
0.653512
0.499395
0.425091
0.411303
0.394933
0.349623
0.303864
0.276446
0.274303
0.282591
0.279104
0.266744
0.239967
0.213401
0.192559
0.179508
0.175861
0.180081
0.185936
0.189443
0.190881
0.193134
0.201912
0.219576
0.237688
0.248422
0.246797
0.238597
0.218665
0.196494
0.184726
0.185266
0.195972
0.211983
0.231783
0.256648
0.283544
0.313426
0.359555
0.413779
0.489951
0.608199
0.716328
0.832383
0.919364
0.975532
1.06154
1.16688
1.27664
1.37634
1.41695
1.30708
1.15514
0.948267
0.788374
0.659919
0.56528
0.508139
0.479815
0.465538
0.456524
0.447972
0.44859
0.436688
0.42062
0.405123
0.376847
0.351227
0.33208
0.319301
0.301007
0.275922
0.244254
0.213399
0.181832
0.153378
0.126048
0.102231
0.0858358
0.0788655
0.0759374
0.0735154
0.0730585
0.07473
0.0745693
0.0806437
0.0821566
0.0677067
0.0519811
0.0389701
0.0302266
0.0239548
0.0200355
0.0174367
0.0160847
0.0155535
0.0153808
0.0154082
0.0154597
0.0155139
0.0156344
0.0158237
0.0160161
0.0162025
0.0164287
0.0166967
0.0169638
0.0171953
0.0173779
0.0175901
0.0178854
0.0182195
0.0185125
0.0187354
0.0189744
0.0192852
0.0196522
0.0199966
0.0202813
0.0204826
0.0206228
0.0207773
0.0209793
0.0212031
0.0213682
0.0214364
0.0213844
0.0213043
0.0212929
0.0212656
0.0211307
0.0208348
0.0204437
0.0200601
0.0197189
0.0194229
0.0190666
0.0185816
0.017977
0.0173023
0.0166325
0.015989
0.0153982
0.0148781
0.0143704
0.0138208
0.0132168
0.0125926
0.0120155
0.0115116
0.0110602
0.0106273
0.0101838
0.00972026
0.00926361
0.00885501
0.00850031
0.00817692
0.00785178
0.00750121
0.00714147
0.00680539
0.00650759
0.00623273
0.00595949
0.00568809
0.0054291
0.00519181
0.00497659
0.00477082
0.00456012
0.00434711
0.00414924
0.00397461
0.00381779
0.0036749
0.00354157
0.00340859
0.0032727
0.00313946
0.00301776
0.00291269
0.00282226
0.0027413
0.00266219
0.00258041
0.00249847
0.00242022
0.0023509
0.00229193
0.00224041
0.00219265
0.00214539
0.0020989
0.00205623
0.00201829
0.0019828
0.00194996
0.00192331
0.0019026
0.00188416
0.00186511
0.00184521
0.00182709
0.00181351
0.00180596
0.00180371
0.0018046
0.00180473
0.00180197
0.00179893
0.00179811
0.00180076
0.00180809
0.00181824
0.00182703
0.00183428
0.00184105
0.00184901
0.00185953
0.00187011
0.00188014
0.00189066
0.00190216
0.00191604
0.00193249
0.00194739
0.00195809
0.00196806
0.00197893
0.00199101
0.00200393
0.00201838
0.00203506
0.00205232
0.00206775
0.0020809
0.0020917
0.00210092
0.00211226
0.00212724
0.00214539
0.00216394
0.00217894
0.00218983
0.00219873
0.00220914
0.00222212
0.00223607
0.00225058
0.00226453
0.00227634
0.00228548
0.00229364
0.00230224
0.00231071
0.00231926
0.00232798
0.00233654
0.00234254
0.00234405
0.00234452
0.0023461
0.00234742
0.00234618
0.00234098
0.00233316
0.00232596
0.00231905
0.00230917
0.00229581
0.0022814
0.00226806
0.00225545
0.00224085
0.00222227
0.00220188
0.00218223
0.0021639
0.00214654
0.00212909
0.00211103
0.00209298
0.00207588
0.00206
0.00204534
0.00203245
0.00202111
0.00201013
0.00199894
0.0019882
0.00197931
0.00197296
0.00196827
0.00196314
0.00195676
0.00194894
0.00194082
0.0019332
0.00192596
0.00191921
0.00191293
0.00190648
0.0018994
0.00189116
0.00188123
0.00187058
0.0018602
0.00185058
0.001842
0.00183432
0.00182678
0.00181835
0.00180912
0.00180028
0.00179263
0.00178642
0.00178106
0.00177467
0.00176751
0.00176086
0.00175507
0.00174981
0.00174465
0.00173964
0.0017348
0.00173004
0.00172503
0.00171934
0.00171395
0.00170974
0.00170537
0.00169911
0.001691
0.00168326
0.00167717
0.00167191
0.00166587
0.00165921
0.00165233
0.00164532
0.00163775
0.00163049
0.00162404
0.00161772
0.00161
0.00160161
0.00159328
0.00158551
0.00157802
0.00156952
0.00156043
0.0015517
0.001544
0.00153629
0.00152766
0.00151858
0.00151057
0.00150311
0.00149571
0.00148823
0.00147852
0.00146994
0.00146173
0.00145425
0.00144475
0.00143799
0.0014246
0.00142116
0.0014222
0.00141981
0.00141442
0.00140952
0.00140285
0.00138437
0.00140773
0.00151894
0.00156782
0.00170351
0.0019014
0.0021321
0.00205877
0.00188447
0.0018464
0.00176926
0.00170101
0.00166456
0.0016174
0.00156264
0.00159197
0.00154469
0.00149177
0.00153206
0.00165669
0.00171855
0.00186666
0.00205919
0.00224887
0.00245837
0.00245327
0.00233991
0.00198745
0.00172853
0.00156771
0.00146328
0.00136737
0.00131735
0.00129573
0.00133461
0.00136664
0.00142191
0.00148152
0.0016985
0.00188659
0.0021134
0.00275663
0.0040437
0.00635311
0.00932478
0.0134811
0.0123687
0.00986809
0.00957446
0.00904359
0.00796566
0.00843858
0.00575842
0.0035177
0.00293618
0.00239297
0.00212341
0.00199931
0.00191729
0.00185848
0.00181747
0.00177271
0.00172484
0.00168042
0.00164059
0.00160584
0.00157568
0.00155048
0.00153043
0.00151554
0.00150582
0.00149959
0.00149391
0.00148851
0.00148559
0.00148504
0.0014844
0.00148395
0.00148567
0.00148993
0.0014949
0.00149867
0.00150201
0.00150536
0.00150838
0.00151193
0.00151699
0.00152392
0.00153152
0.00153771
0.0015403
0.00154126
0.00154167
0.00154352
0.00154706
0.00155124
0.00155562
0.00155959
0.00156402
0.00156928
0.00157458
0.00157985
0.00158573
0.0015926
0.00160016
0.00160773
0.0016146
0.00162046
0.00162527
0.00162927
0.00163281
0.00163631
0.0016402
0.00164461
0.00164927
0.00165371
0.00165774
0.00166166
0.00166598
0.00167072
0.00167503
0.0016786
0.0016817
0.00168495
0.00168822
0.00169198
0.00169466
0.00170053
0.00172394
0.00176285
0.00182181
0.00195521
0.00211541
0.00236756
0.00228947
0.00166079
0.184624
0.180093
0.16481
0.131359
0.0989724
0.0755794
0.0665928
0.0672079
0.0790406
0.097227
0.118235
0.151437
0.206563
0.287929
0.393216
0.510342
0.626565
0.731769
0.848865
0.967145
1.07548
1.16056
1.21641
1.25412
1.28738
1.34246
1.38287
1.33337
1.27339
1.27523
1.34066
1.41555
1.45185
1.42572
1.34878
1.2449
1.13104
1.00597
0.797828
0.557938
0.389107
0.308574
0.269664
0.253547
0.236944
0.212787
0.191434
0.178224
0.175464
0.178865
0.17848
0.170707
0.157548
0.143305
0.129905
0.119192
0.11318
0.11163
0.111283
0.109844
0.108588
0.109694
0.115808
0.128149
0.141282
0.150212
0.153108
0.149061
0.139163
0.126265
0.116739
0.113515
0.116093
0.123116
0.133308
0.147833
0.16699
0.188973
0.215866
0.247737
0.28949
0.348863
0.417569
0.50248
0.60497
0.688734
0.765332
0.842433
0.907483
0.958915
1.02565
1.05967
1.06532
1.0283
0.935508
0.810528
0.653693
0.530843
0.437608
0.372221
0.333212
0.310675
0.292533
0.2744
0.258269
0.245553
0.230256
0.214401
0.203432
0.199982
0.19736
0.193912
0.191183
0.182462
0.169069
0.151567
0.133624
0.114657
0.0969314
0.079554
0.0638947
0.0519497
0.0454604
0.0419537
0.0398538
0.039357
0.040547
0.0408591
0.0446015
0.0453861
0.0371194
0.0283939
0.0211546
0.0162191
0.0126638
0.0105704
0.00928206
0.00828526
0.00764323
0.00723604
0.00698652
0.00684384
0.00677474
0.00677128
0.00681828
0.00687699
0.00693516
0.00699652
0.00707299
0.00717714
0.00730021
0.00741969
0.00752796
0.00763281
0.00774843
0.00787388
0.0080106
0.00815234
0.00827971
0.00837709
0.0084534
0.00852585
0.00860117
0.00867754
0.00873908
0.00877418
0.00877324
0.00875062
0.00872827
0.00870938
0.00866601
0.00857122
0.00844121
0.00830234
0.00816466
0.00803601
0.00789799
0.00772846
0.0075332
0.00732127
0.00709617
0.00687044
0.00665589
0.00646147
0.00628624
0.00611253
0.00592529
0.00572392
0.00552426
0.00534419
0.00518629
0.0050422
0.00490231
0.00475874
0.00461085
0.00446675
0.00433611
0.0042212
0.00411455
0.00400605
0.00389361
0.00378435
0.00368362
0.00358913
0.00349468
0.00339836
0.00330548
0.00322145
0.00314589
0.00307297
0.00299668
0.00291632
0.00283704
0.00276304
0.00269387
0.002631
0.00257424
0.0025179
0.00245829
0.0023966
0.00233732
0.00228395
0.00223598
0.00219201
0.00215035
0.00210854
0.00206593
0.00202258
0.00197966
0.00194063
0.00190757
0.00187829
0.00184894
0.0018187
0.0017901
0.00176375
0.00173824
0.00171419
0.00169458
0.00167892
0.00166278
0.00164513
0.00162722
0.00161063
0.00159804
0.00159066
0.00158653
0.00158258
0.0015769
0.0015698
0.00156309
0.00155878
0.00155797
0.00155942
0.00156168
0.0015632
0.00156399
0.00156513
0.00156838
0.00157431
0.00157953
0.00158303
0.00158664
0.00158971
0.00159372
0.00160174
0.00161207
0.00162063
0.00162664
0.0016313
0.00163593
0.00164229
0.00165165
0.00166165
0.00167024
0.00167835
0.00168689
0.00169543
0.00170248
0.00170896
0.00171721
0.00172746
0.00173849
0.00174861
0.0017567
0.00176227
0.00176824
0.00177799
0.00178823
0.00179634
0.00180441
0.00181177
0.00181673
0.00182245
0.00183031
0.00183673
0.0018414
0.00184571
0.00184976
0.00185326
0.00185602
0.00185787
0.00185814
0.00185731
0.00185602
0.00185431
0.00185112
0.00184663
0.0018416
0.00183544
0.00182799
0.00181959
0.0018104
0.00180052
0.00178973
0.00177787
0.00176516
0.00175198
0.00173844
0.00172434
0.00170956
0.00169443
0.00167924
0.00166397
0.00164851
0.00163294
0.00161756
0.0016025
0.00158753
0.00157249
0.0015577
0.00154368
0.00153064
0.00151813
0.00150539
0.00149277
0.0014809
0.00146981
0.00145941
0.0014496
0.00144033
0.00143151
0.00142297
0.00141453
0.00140617
0.00139829
0.00139103
0.00138418
0.00137768
0.00137164
0.00136624
0.00136141
0.00135664
0.00135178
0.00134718
0.00134313
0.00133977
0.00133673
0.00133368
0.00133086
0.00132841
0.00132632
0.00132446
0.00132261
0.00132079
0.00131912
0.0013176
0.00131618
0.00131486
0.0013135
0.00131215
0.0013111
0.00131006
0.00130877
0.00130735
0.00130579
0.00130429
0.00130291
0.00130161
0.00130019
0.0012987
0.0012971
0.00129555
0.00129406
0.0012926
0.00129092
0.00128886
0.00128684
0.001285
0.00128327
0.00128075
0.00127809
0.00127559
0.00127366
0.00127132
0.00126868
0.00126557
0.00126293
0.00126015
0.0012581
0.0012566
0.00125409
0.00125043
0.00124777
0.00124388
0.00124397
0.00125222
0.00125608
0.00127166
0.00126606
0.00125658
0.00125125
0.0012763
0.00138309
0.00145452
0.0015897
0.00177239
0.00201842
0.00190864
0.00167906
0.0016182
0.00149927
0.00139035
0.00130579
0.00127636
0.00126513
0.00126807
0.00128514
0.00130516
0.00137638
0.0015472
0.00168078
0.00190323
0.00211766
0.00241448
0.00243182
0.00236155
0.0021022
0.00181866
0.00160651
0.00148369
0.00138841
0.00133285
0.00130499
0.00128613
0.00131663
0.00134791
0.00141367
0.00153846
0.00183091
0.00221175
0.00294094
0.0042346
0.00588463
0.00763265
0.0111094
0.0147124
0.0131975
0.00998036
0.00897912
0.00806669
0.00678373
0.00639947
0.00456263
0.00321197
0.00257313
0.00210985
0.00188934
0.00176488
0.00170216
0.0016624
0.00164426
0.00163835
0.00163142
0.00161678
0.00159306
0.00157087
0.00154991
0.00152866
0.00150676
0.00148602
0.00146797
0.00145246
0.00143841
0.00142703
0.00141771
0.00140825
0.0013995
0.0013928
0.00138812
0.00138412
0.00138032
0.00137735
0.00137536
0.00137387
0.00137251
0.0013717
0.00137117
0.00137072
0.00137074
0.00137133
0.0013723
0.00137326
0.00137397
0.00137445
0.00137502
0.00137583
0.00137686
0.00137802
0.00137926
0.00138057
0.00138196
0.00138343
0.00138488
0.00138635
0.00138785
0.00138939
0.00139098
0.00139259
0.00139417
0.0013957
0.00139717
0.00139855
0.00139985
0.0014011
0.00140231
0.00140352
0.00140473
0.00140591
0.00140703
0.0014081
0.00140919
0.00141024
0.00141126
0.00141203
0.00141304
0.00141375
0.00141462
0.00141528
0.00141655
0.0014174
0.00142165
0.0014412
0.00147519
0.00152814
0.0016472
0.00179383
0.00202877
0.00200076
0.00151882
0.10642
0.108316
0.10244
0.0860293
0.0668763
0.0527803
0.0480971
0.0523171
0.063876
0.0783353
0.0948813
0.120677
0.163367
0.224776
0.301307
0.384777
0.465462
0.534529
0.592092
0.642939
0.687429
0.721985
0.744928
0.761592
0.784427
0.816509
0.834367
0.818325
0.809156
0.833378
0.887184
0.944584
0.979214
0.969505
0.932015
0.876148
0.78732
0.644636
0.468998
0.313576
0.233902
0.190307
0.167234
0.154602
0.144692
0.134432
0.125086
0.118633
0.11611
0.116772
0.116735
0.114205
0.108982
0.101601
0.0922753
0.0838306
0.0777748
0.074485
0.0723443
0.0703165
0.0692116
0.0700037
0.0735249
0.080545
0.0883636
0.094251
0.0970794
0.096435
0.0927395
0.0870244
0.0813662
0.0781703
0.0778973
0.0806999
0.086591
0.0955624
0.10654
0.119262
0.133077
0.149097
0.169956
0.19763
0.230753
0.268565
0.311328
0.355821
0.400933
0.459243
0.549606
0.62591
0.692691
0.734062
0.739616
0.730021
0.687198
0.632064
0.571597
0.504811
0.432119
0.35946
0.297991
0.252147
0.21867
0.195866
0.179516
0.166083
0.153541
0.143399
0.135555
0.131642
0.128793
0.128543
0.130259
0.13084
0.130584
0.129651
0.124187
0.115354
0.103645
0.0913488
0.078357
0.0661866
0.0544106
0.0440489
0.0364209
0.0322678
0.0300816
0.029254
0.0298073
0.0319344
0.0336508
0.0378064
0.0392057
0.0339197
0.0265772
0.0204777
0.0157601
0.0124105
0.0098138
0.0080174
0.00673464
0.0059212
0.0053909
0.00505943
0.0048549
0.004727
0.00465122
0.00462308
0.00463073
0.00466111
0.00470077
0.00474394
0.00479235
0.00485388
0.00491998
0.00497977
0.00503467
0.00509708
0.00516135
0.00522017
0.00527388
0.0053151
0.00534325
0.00536887
0.00539726
0.00542123
0.00543751
0.00544047
0.0054269
0.00541144
0.0053974
0.00537592
0.00534231
0.00529457
0.00523787
0.0051794
0.0051242
0.00507089
0.00501542
0.0049461
0.00486311
0.00477821
0.00469266
0.00460863
0.00453797
0.00447748
0.00441312
0.00433876
0.00425474
0.00417006
0.00409513
0.00403035
0.0039696
0.00390808
0.00384092
0.00376652
0.00369366
0.00362898
0.00357081
0.00351689
0.00346248
0.0034026
0.00333868
0.00327446
0.00321051
0.00314669
0.00308723
0.00303366
0.00298138
0.00292549
0.00286464
0.00280224
0.0027425
0.00268614
0.0026322