/*--------------------------------*- C++ -*----------------------------------*\
| =========                 |                                                 |
| \\      /  F ield         | OpenFOAM: The Open Source CFD Toolbox           |
|  \\    /   O peration     | Version:  v2006                                 |
|   \\  /    A nd           | Website:  www.openfoam.com                      |
|    \\/     M anipulation  |                                                 |
\*---------------------------------------------------------------------------*/
FoamFile
{
    version     2.0;
    format      ascii;
    class       volScalarField;
    location    "9.5";
    object      p;
}
// * * * * * * * * * * * * * * * * * * * * * * * * * * * * * * * * * * * * * //

dimensions      [1 -1 -2 0 0 0 0];


internalField   nonuniform List<scalar> 
33000
(
8070.07
8058.51
8050.52
8042.95
8035.88
8028.98
8022.07
8015.11
8008.14
8001.3
7994.46
7987.86
7981.52
7975.41
7969.51
7963.77
7958.2
7952.82
7947.68
7942.93
7938.65
7934.84
7931.39
7928.23
7925.23
7922.24
7919.24
7916.36
7913.65
7911.12
7908.85
7906.84
7905.17
7903.82
7902.75
7901.9
7901.14
7900.39
7899.68
7899.06
7898.57
7898.24
7898.05
7898.01
7898.13
7898.41
7898.83
7899.37
7900.04
7900.84
7901.76
7902.83
7904.01
7905.3
7906.68
7908.14
7909.66
7911.24
7912.89
7914.62
7916.42
7918.29
7920.23
7922.21
7924.26
7926.38
7928.54
7930.75
7932.99
7935.24
7937.49
7939.71
7941.91
7944.09
7946.28
7948.41
7950.53
7952.42
7953.19
7955.3
7959.09
7961.43
7963.97
7966.53
7969.11
7971.44
7974.3
7976.85
7979.5
7982.01
7984.58
7987.06
7989.63
7992.21
7994.84
7997.49
8000.52
8003.02
8007.06
8008.92
8008.86
8010.58
8011.81
8012.93
8014.15
8014.81
8015.11
8015.24
8015.31
8015.26
8014.82
8014.29
8013.44
8012.32
8011.19
8009.63
8009.29
8006.64
8001.43
7998.03
7993.69
7988.79
7983.8
7978.07
7971.54
7964.74
7957.49
7949.79
7941.76
7933.25
7924.3
7914.97
7905.3
7895.31
7885.01
7874.41
7863.51
7852.35
7840.95
7829.32
7817.48
7805.46
7793.32
7781.07
7768.75
7756.37
7743.96
7731.55
7719.19
7706.92
7694.75
7682.69
7670.78
7659.05
7647.53
7636.24
7625.2
7614.43
7603.94
7593.75
7583.88
7574.35
7565.15
7556.29
7547.79
7539.65
7531.87
7524.44
7517.36
7510.63
7504.24
7498.18
7492.42
7486.96
7481.76
7476.82
7472.13
7467.66
7463.39
7459.3
7455.36
7451.57
7447.9
7444.37
7441
7437.81
7434.82
7432.03
7429.45
7427.12
7425.03
7423.19
7421.61
7420.29
7419.23
7418.43
7417.9
7417.65
7417.66
7417.95
7418.49
7419.29
7420.34
7421.65
7423.2
7424.99
7427.01
7429.25
7431.71
7434.39
7437.27
7440.35
7443.61
7447.05
7450.65
7454.4
7458.32
7462.39
7466.6
7470.93
7475.37
7479.93
7484.58
7489.33
7494.17
7499.09
7504.09
7509.14
7514.25
7519.4
7524.6
7529.83
7535.1
7540.4
7545.71
7551.02
7556.33
7561.65
7566.95
7572.25
7577.52
7582.78
7588.02
7593.23
7598.4
7603.52
7608.61
7613.64
7618.64
7623.59
7628.47
7633.3
7638.06
7642.76
7647.4
7651.97
7656.47
7660.91
7665.26
7669.54
7673.75
7677.87
7681.92
7685.89
7689.77
7693.56
7697.28
7700.91
7704.45
7707.91
7711.29
7714.57
7717.76
7720.87
7723.88
7726.82
7729.66
7732.42
7735.09
7737.68
7740.18
7742.59
7744.91
7747.16
7749.32
7751.41
7753.41
7755.33
7757.18
7758.95
7760.65
7762.27
7763.83
7765.32
7766.75
7768.11
7769.41
7770.66
7771.85
7772.99
7774.08
7775.12
7776.13
7777.09
7778.02
7778.92
7779.79
7780.63
7781.45
7782.25
7783.04
7783.81
7784.57
7785.33
7786.08
7786.84
7787.59
7788.34
7789.1
7789.85
7790.6
7791.35
7792.1
7792.85
7793.6
7794.35
7795.1
7795.84
7796.59
7797.33
7798.08
7798.82
7799.56
7800.31
7801.05
7801.79
7802.54
7803.28
7804.02
7804.76
7805.49
7806.22
7806.95
7807.67
7808.38
7809.09
7809.79
7810.48
7811.17
7811.84
7812.5
7813.15
7813.79
7814.41
7815.02
7815.61
7816.18
7816.73
7817.27
7817.78
7818.27
7818.74
7819.19
7819.61
7820.01
7820.38
7820.73
7821.06
7821.35
7821.63
7821.87
7822.09
7822.29
7822.45
7822.59
7822.7
7822.79
7822.85
7822.88
7822.88
7822.86
7822.82
7822.75
7822.65
7822.53
7822.38
7822.21
7822.02
7821.8
7821.56
7821.29
7821.01
7820.7
7820.37
7820.02
7819.65
7819.25
7818.84
7818.41
7817.96
7817.5
7817.01
7816.51
7815.99
7815.46
7814.91
7814.34
7813.76
7813.17
7812.56
7811.94
7811.3
7810.66
7810
7809.33
7808.64
7807.95
7807.25
7806.53
7805.81
7805.08
7804.33
7803.58
7802.82
7802.06
7801.29
7800.52
7799.72
7798.94
7798.11
7797.34
7796.65
7795.87
7795.11
7794.31
7793.5
7792.68
7791.85
7791.01
7790.16
7789.31
7788.45
7787.58
7786.71
7785.84
7784.96
7784.09
7783.2
7782.32
7781.47
7780.59
7779.72
7778.84
7777.98
7777.09
7776.23
7775.34
7774.48
7773.61
7772.76
7771.89
7771.07
7770.18
7769.38
7768.6
7767.81
7767.01
7766.34
7765.23
7764.67
7764.21
7763.64
7763.06
7762.45
7761.81
7761.17
7760.51
7759.84
7759.17
7758.49
7757.81
7757.13
7756.45
7755.77
7755.08
7754.4
7753.72
7753.04
7752.36
7751.69
7751.01
7750.34
7749.68
7749.01
7748.35
7747.7
7747.04
7746.39
7745.75
7745.1
7744.46
7743.82
7743.19
7742.55
7741.92
7741.29
7740.66
7740.04
7739.41
7738.78
7738.15
7737.51
7736.88
7736.24
7735.59
7734.94
7734.29
7733.63
7732.96
7732.28
7731.59
7730.89
7730.18
7729.45
7728.71
7727.96
7727.19
7726.4
7725.6
7724.78
7723.93
7723.07
7722.19
7721.28
7720.35
7719.39
7718.41
7717.4
7716.37
7715.31
7714.22
7713.1
7711.96
7710.78
7709.57
7708.34
7707.08
7705.75
7704.65
7702.42
7872.35
7861.12
7853.24
7845.67
7838.56
7831.65
7824.7
7817.75
7810.75
7803.88
7797.12
7790.69
7784.52
7778.56
7772.71
7766.93
7761.23
7755.66
7750.33
7745.47
7741.22
7737.59
7734.32
7731.41
7728.69
7725.84
7722.82
7719.83
7716.95
7714.29
7711.89
7709.81
7708.17
7706.86
7705.84
7705.1
7704.4
7703.68
7703.04
7702.49
7702.02
7701.68
7701.5
7701.47
7701.61
7701.9
7702.33
7702.88
7703.57
7704.38
7705.31
7706.37
7707.55
7708.85
7710.23
7711.69
7713.22
7714.81
7716.5
7718.27
7720.12
7722.04
7723.99
7725.96
7727.99
7730.08
7732.22
7734.41
7736.66
7738.92
7741.18
7743.43
7745.66
7747.88
7750.11
7752.34
7754.55
7756.72
7758.89
7761.36
7763.47
7764.23
7766.17
7770.49
7773.08
7775.7
7778.43
7780.82
7783.26
7785.38
7788.3
7790.79
7793.32
7795.88
7798.41
7800.91
7803.52
7806.09
7808.53
7810.93
7813.07
7816.81
7817.97
7816.6
7817.41
7817.76
7818.72
7819.19
7819.96
7820
7819.29
7818.47
7817.41
7816.16
7814.85
7813.23
7811.31
7808.97
7805.89
7804.37
7800.23
7792.95
7787.78
7781.82
7775.62
7769.33
7762.26
7754.38
7746.19
7737.58
7728.6
7719.35
7709.7
7699.69
7689.34
7678.69
7667.77
7656.58
7645.17
7633.52
7621.67
7609.63
7597.46
7585.17
7572.8
7560.38
7547.93
7535.49
7523.1
7510.79
7498.57
7486.47
7474.53
7462.78
7451.23
7439.91
7428.83
7418.03
7407.52
7397.32
7387.44
7377.89
7368.68
7359.81
7351.3
7343.15
7335.37
7327.94
7320.86
7314.13
7307.73
7301.66
7295.91
7290.44
7285.24
7280.3
7275.6
7271.12
7266.84
7262.74
7258.8
7255
7251.33
7247.79
7244.41
7241.21
7238.21
7235.42
7232.85
7230.5
7228.4
7226.56
7224.97
7223.65
7222.59
7221.8
7221.28
7221.03
7221.05
7221.33
7221.88
7222.69
7223.75
7225.07
7226.63
7228.42
7230.45
7232.71
7235.18
7237.87
7240.76
7243.85
7247.12
7250.57
7254.18
7257.96
7261.89
7265.97
7270.18
7274.52
7278.98
7283.55
7288.22
7292.98
7297.83
7302.76
7307.76
7312.83
7317.95
7323.11
7328.32
7333.57
7338.85
7344.15
7349.46
7354.78
7360.1
7365.42
7370.74
7376.04
7381.33
7386.6
7391.84
7397.05
7402.22
7407.35
7412.45
7417.49
7422.49
7427.44
7432.33
7437.16
7441.93
7446.63
7451.28
7455.85
7460.35
7464.78
7469.14
7473.42
7477.63
7481.76
7485.81
7489.78
7493.66
7497.46
7501.18
7504.81
7508.35
7511.81
7515.19
7518.47
7521.66
7524.77
7527.79
7530.72
7533.56
7536.32
7538.99
7541.57
7544.07
7546.48
7548.81
7551.05
7553.21
7555.29
7557.29
7559.21
7561.06
7562.83
7564.52
7566.15
7567.7
7569.19
7570.61
7571.97
7573.27
7574.51
7575.7
7576.83
7577.92
7578.96
7579.96
7580.93
7581.85
7582.74
7583.61
7584.45
7585.27
7586.06
7586.85
7587.62
7588.38
7589.13
7589.88
7590.63
7591.38
7592.14
7592.89
7593.64
7594.39
7595.14
7595.89
7596.64
7597.39
7598.13
7598.88
7599.62
7600.37
7601.11
7601.86
7602.6
7603.35
7604.09
7604.83
7605.58
7606.32
7607.06
7607.81
7608.54
7609.28
7610.01
7610.74
7611.46
7612.18
7612.89
7613.6
7614.29
7614.98
7615.66
7616.32
7616.97
7617.61
7618.24
7618.85
7619.44
7620.01
7620.57
7621.1
7621.62
7622.11
7622.59
7623.03
7623.46
7623.86
7624.24
7624.59
7624.92
7625.22
7625.49
7625.74
7625.96
7626.15
7626.32
7626.46
7626.57
7626.65
7626.71
7626.75
7626.75
7626.73
7626.69
7626.61
7626.52
7626.39
7626.25
7626.08
7625.88
7625.66
7625.42
7625.15
7624.87
7624.56
7624.23
7623.88
7623.5
7623.11
7622.7
7622.27
7621.82
7621.35
7620.86
7620.36
7619.84
7619.31
7618.76
7618.19
7617.61
7617.01
7616.41
7615.78
7615.15
7614.5
7613.84
7613.17
7612.48
7611.79
7611.08
7610.36
7609.64
7608.9
7608.16
7607.42
7606.66
7605.87
7605.1
7604.27
7603.5
7602.82
7602.04
7601.3
7600.53
7599.75
7598.96
7598.15
7597.34
7596.51
7595.68
7594.83
7593.98
7593.13
7592.26
7591.39
7590.52
7589.63
7588.76
7587.9
7587.02
7586.14
7585.28
7584.39
7583.52
7582.63
7581.77
7580.89
7580.02
7579.16
7578.26
7577.42
7576.49
7575.68
7574.84
7574.06
7573.18
7572.44
7571.21
7570.57
7570.09
7569.46
7568.84
7568.23
7567.6
7566.97
7566.33
7565.68
7565.02
7564.35
7563.68
7563
7562.32
7561.63
7560.95
7560.26
7559.58
7558.89
7558.21
7557.52
7556.84
7556.16
7555.48
7554.81
7554.14
7553.47
7552.81
7552.15
7551.49
7550.84
7550.19
7549.54
7548.9
7548.26
7547.62
7546.98
7546.35
7545.72
7545.09
7544.46
7543.84
7543.21
7542.58
7541.95
7541.32
7540.68
7540.05
7539.4
7538.76
7538.1
7537.44
7536.77
7536.1
7535.41
7534.71
7534
7533.28
7532.55
7531.8
7531.03
7530.25
7529.44
7528.62
7527.78
7526.92
7526.04
7525.13
7524.2
7523.25
7522.27
7521.27
7520.23
7519.17
7518.09
7516.97
7515.83
7514.65
7513.45
7512.21
7510.95
7509.62
7508.53
7506.29
7674.68
7663.84
7656.01
7648.38
7641.06
7633.93
7626.87
7619.87
7612.87
7605.97
7599.33
7593.07
7586.97
7581.08
7575.25
7569.41
7563.65
7558
7552.61
7547.75
7543.62
7540.16
7536.91
7534.07
7531.38
7528.6
7525.68
7522.61
7519.61
7516.74
7514.13
7512
7510.37
7509.2
7508.26
7507.56
7507
7506.45
7505.96
7505.5
7505.06
7504.73
7504.56
7504.57
7504.73
7505.04
7505.48
7506.06
7506.77
7507.6
7508.55
7509.62
7510.82
7512.12
7513.52
7515
7516.57
7518.22
7519.96
7521.79
7523.69
7525.64
7527.61
7529.6
7531.63
7533.71
7535.85
7538.05
7540.3
7542.59
7544.9
7547.2
7549.51
7551.8
7554.08
7556.37
7558.64
7560.94
7563.22
7565.45
7567.83
7570.41
7573.12
7575.29
7575.93
7577.26
7581.93
7584.78
7587.53
7589.77
7592.26
7594.76
7596.7
7599.65
7602.08
7604.56
7607.06
7609.47
7611.73
7613.92
7615.71
7617.62
7619.55
7621.44
7625.23
7625.62
7623.19
7622.93
7622.9
7623.09
7622.89
7623.05
7622.29
7620.89
7619.22
7617.27
7615.19
7612.64
7609.49
7605.93
7602.19
7597.85
7595.31
7589.76
7580.64
7573.95
7566.49
7558.9
7551.33
7542.91
7533.74
7524.29
7514.5
7504.45
7494.11
7483.53
7472.63
7461.39
7449.89
7438.17
7426.24
7414.15
7401.91
7389.55
7377.1
7364.58
7352.05
7339.54
7327.08
7314.69
7302.39
7290.21
7278.2
7266.39
7254.79
7243.41
7232.27
7221.42
7210.87
7200.63
7190.72
7181.14
7171.91
7163.02
7154.5
7146.34
7138.54
7131.11
7124.02
7117.28
7110.87
7104.78
7099.01
7093.53
7088.32
7083.37
7078.65
7074.15
7069.84
7065.72
7061.76
7057.95
7054.27
7050.73
7047.36
7044.15
7041.14
7038.34
7035.76
7033.42
7031.32
7029.46
7027.87
7026.55
7025.5
7024.71
7024.2
7023.96
7023.99
7024.28
7024.85
7025.67
7026.75
7028.09
7029.66
7031.48
7033.53
7035.81
7038.31
7041.02
7043.93
7047.04
7050.33
7053.8
7057.44
7061.25
7065.21
7069.31
7073.55
7077.91
7082.39
7086.98
7091.68
7096.47
7101.34
7106.29
7111.31
7116.4
7121.54
7126.73
7131.96
7137.23
7142.52
7147.84
7153.17
7158.5
7163.84
7169.18
7174.51
7179.84
7185.14
7190.42
7195.67
7200.89
7206.07
7211.21
7216.32
7221.38
7226.39
7231.34
7236.24
7241.07
7245.85
7250.57
7255.22
7259.8
7264.31
7268.74
7273.1
7277.39
7281.61
7285.74
7289.79
7293.76
7297.65
7301.45
7305.17
7308.81
7312.35
7315.81
7319.18
7322.47
7325.66
7328.77
7331.79
7334.72
7337.57
7340.32
7342.98
7345.57
7348.06
7350.47
7352.8
7355.04
7357.19
7359.27
7361.26
7363.18
7365.02
7366.78
7368.48
7370.09
7371.64
7373.12
7374.53
7375.89
7377.18
7378.42
7379.6
7380.73
7381.81
7382.84
7383.84
7384.79
7385.71
7386.6
7387.45
7388.29
7389.1
7389.89
7390.67
7391.43
7392.19
7392.94
7393.69
7394.43
7395.18
7395.93
7396.67
7397.42
7398.17
7398.92
7399.66
7400.41
7401.15
7401.9
7402.64
7403.39
7404.13
7404.87
7405.62
7406.37
7407.11
7407.86
7408.6
7409.35
7410.09
7410.84
7411.58
7412.32
7413.06
7413.8
7414.53
7415.26
7415.98
7416.7
7417.41
7418.11
7418.8
7419.48
7420.15
7420.81
7421.46
7422.09
7422.7
7423.3
7423.88
7424.44
7424.98
7425.5
7426
7426.48
7426.93
7427.36
7427.77
7428.15
7428.51
7428.83
7429.14
7429.41
7429.66
7429.88
7430.08
7430.25
7430.39
7430.5
7430.59
7430.65
7430.68
7430.69
7430.67
7430.62
7430.55
7430.45
7430.33
7430.18
7430
7429.81
7429.59
7429.34
7429.08
7428.79
7428.48
7428.15
7427.79
7427.42
7427.02
7426.61
7426.18
7425.72
7425.25
7424.77
7424.26
7423.74
7423.2
7422.65
7422.08
7421.5
7420.9
7420.29
7419.67
7419.03
7418.38
7417.72
7417.04
7416.35
7415.66
7414.95
7414.23
7413.51
7412.78
7412
7411.25
7410.44
7409.7
7409.03
7408.27
7407.53
7406.77
7405.99
7405.21
7404.43
7403.64
7402.83
7402.02
7401.2
7400.37
7399.53
7398.68
7397.82
7396.96
7396.08
7395.21
7394.36
7393.49
7392.61
7391.74
7390.85
7389.98
7389.09
7388.21
7387.35
7386.45
7385.6
7384.68
7383.83
7382.87
7382.05
7381.18
7380.38
7379.46
7378.69
7377.38
7376.71
7376.18
7375.51
7374.84
7374.16
7373.47
7372.8
7372.15
7371.5
7370.84
7370.18
7369.52
7368.85
7368.17
7367.49
7366.81
7366.12
7365.43
7364.75
7364.06
7363.37
7362.68
7361.99
7361.31
7360.63
7359.95
7359.27
7358.59
7357.92
7357.25
7356.59
7355.93
7355.27
7354.62
7353.97
7353.32
7352.68
7352.04
7351.4
7350.77
7350.14
7349.51
7348.89
7348.26
7347.64
7347.01
7346.39
7345.76
7345.13
7344.5
7343.87
7343.23
7342.59
7341.94
7341.28
7340.62
7339.95
7339.27
7338.57
7337.87
7337.15
7336.42
7335.68
7334.91
7334.14
7333.34
7332.52
7331.69
7330.83
7329.95
7329.05
7328.13
7327.18
7326.2
7325.2
7324.17
7323.11
7322.03
7320.92
7319.77
7318.6
7317.4
7316.16
7314.9
7313.57
7312.48
7310.25
7477.12
7466.2
7458.35
7450.65
7443.19
7435.93
7428.75
7421.66
7414.67
7407.82
7401.35
7395.13
7389.09
7383.18
7377.36
7371.59
7365.97
7360.58
7355.5
7350.85
7346.7
7343.07
7339.76
7336.72
7333.84
7331
7328.13
7325.02
7321.98
7319.17
7316.65
7314.54
7312.88
7311.63
7310.67
7309.93
7309.34
7308.83
7308.4
7307.99
7307.62
7307.36
7307.25
7307.3
7307.51
7307.86
7308.33
7308.93
7309.67
7310.53
7311.53
7312.63
7313.84
7315.17
7316.6
7318.12
7319.73
7321.44
7323.25
7325.11
7327.04
7329
7331
7333.05
7335.13
7337.25
7339.42
7341.64
7343.9
7346.22
7348.57
7350.94
7353.31
7355.66
7358.01
7360.34
7362.68
7365.03
7367.4
7369.76
7372.13
7374.39
7376.72
7379.24
7381.88
7384.77
7387.69
7389.95
7390.13
7390.33
7396.13
7398.53
7400.93
7403.31
7405.88
7407.53
7410.42
7412.62
7414.85
7416.95
7418.89
7420.69
7422.35
7423.28
7424.75
7425.58
7427.47
7428.5
7432.4
7432.41
7428.32
7427.19
7425.82
7424.73
7424
7422.23
7419.73
7416.87
7413.59
7410.21
7406.28
7401.75
7396.7
7391.63
7385.94
7382.35
7375.43
7364.61
7356.51
7347.65
7338.73
7329.96
7320.36
7310.06
7299.48
7288.69
7277.72
7266.43
7254.95
7243.2
7231.19
7218.99
7206.64
7194.16
7181.59
7168.96
7156.32
7143.7
7131.13
7118.62
7106.2
7093.92
7081.82
7069.91
7058.21
7046.75
7035.55
7024.63
7014.01
7003.71
6993.75
6984.13
6974.86
6965.94
6957.39
6949.19
6941.37
6933.9
6926.79
6920.02
6913.58
6907.46
6901.65
6896.14
6890.9
6885.92
6881.17
6876.63
6872.3
6868.15
6864.17
6860.34
6856.65
6853.12
6849.75
6846.55
6843.54
6840.74
6838.16
6835.82
6833.72
6831.88
6830.29
6828.97
6827.92
6827.15
6826.65
6826.43
6826.47
6826.79
6827.38
6828.23
6829.34
6830.7
6832.3
6834.15
6836.23
6838.55
6841.09
6843.84
6846.78
6849.92
6853.25
6856.75
6860.43
6864.28
6868.27
6872.41
6876.68
6881.08
6885.6
6890.23
6894.96
6899.79
6904.7
6909.68
6914.73
6919.84
6925.02
6930.24
6935.51
6940.81
6946.13
6951.47
6956.82
6962.19
6967.55
6972.91
6978.27
6983.62
6988.94
6994.24
6999.51
7004.74
7009.94
7015.11
7020.23
7025.31
7030.33
7035.29
7040.2
7045.05
7049.84
7054.57
7059.23
7063.82
7068.34
7072.78
7077.15
7081.45
7085.67
7089.81
7093.86
7097.84
7101.73
7105.54
7109.26
7112.9
7116.45
7119.91
7123.28
7126.57
7129.76
7132.87
7135.9
7138.83
7141.67
7144.42
7147.08
7149.66
7152.15
7154.56
7156.88
7159.11
7161.26
7163.33
7165.32
7167.23
7169.06
7170.82
7172.5
7174.11
7175.65
7177.12
7178.52
7179.87
7181.15
7182.38
7183.55
7184.67
7185.74
7186.77
7187.75
7188.69
7189.6
7190.48
7191.33
7192.16
7192.96
7193.74
7194.51
7195.27
7196.02
7196.76
7197.5
7198.24
7198.98
7199.72
7200.46
7201.2
7201.94
7202.68
7203.42
7204.16
7204.91
7205.65
7206.39
7207.13
7207.88
7208.62
7209.37
7210.11
7210.86
7211.61
7212.35
7213.1
7213.85
7214.6
7215.35
7216.09
7216.84
7217.58
7218.32
7219.05
7219.78
7220.51
7221.22
7221.93
7222.63
7223.33
7224
7224.67
7225.32
7225.96
7226.59
7227.19
7227.78
7228.35
7228.9
7229.43
7229.94
7230.42
7230.88
7231.32
7231.73
7232.12
7232.48
7232.81
7233.12
7233.4
7233.65
7233.88
7234.08
7234.25
7234.39
7234.51
7234.59
7234.65
7234.69
7234.69
7234.67
7234.62
7234.55
7234.45
7234.33
7234.18
7234
7233.8
7233.58
7233.33
7233.06
7232.77
7232.46
7232.12
7231.77
7231.39
7230.99
7230.58
7230.14
7229.69
7229.21
7228.72
7228.22
7227.69
7227.15
7226.6
7226.03
7225.44
7224.84
7224.23
7223.6
7222.96
7222.3
7221.64
7220.96
7220.27
7219.57
7218.87
7218.12
7217.39
7216.59
7215.87
7215.23
7214.49
7213.77
7213.02
7212.26
7211.5
7210.73
7209.95
7209.16
7208.36
7207.56
7206.75
7205.93
7205.09
7204.25
7203.4
7202.53
7201.67
7200.83
7199.96
7199.09
7198.22
7197.33
7196.46
7195.55
7194.68
7193.78
7192.92
7191.99
7191.14
7190.17
7189.33
7188.48
7187.63
7186.8
7185.87
7185.06
7183.69
7182.99
7182.44
7181.74
7181.03
7180.31
7179.57
7178.86
7178.17
7177.48
7176.79
7176.11
7175.44
7174.76
7174.08
7173.39
7172.71
7172.02
7171.33
7170.64
7169.94
7169.25
7168.56
7167.86
7167.17
7166.48
7165.79
7165.1
7164.41
7163.73
7163.05
7162.37
7161.7
7161.03
7160.37
7159.7
7159.05
7158.39
7157.74
7157.1
7156.46
7155.82
7155.19
7154.55
7153.93
7153.3
7152.68
7152.06
7151.44
7150.82
7150.2
7149.57
7148.95
7148.33
7147.7
7147.07
7146.43
7145.79
7145.14
7144.48
7143.82
7143.15
7142.46
7141.76
7141.05
7140.33
7139.59
7138.84
7138.07
7137.28
7136.47
7135.64
7134.79
7133.92
7133.02
7132.1
7131.16
7130.19
7129.19
7128.17
7127.12
7126.04
7124.93
7123.79
7122.62
7121.42
7120.19
7118.93
7117.6
7116.51
7114.28
7279.44
7268.3
7260.41
7252.62
7244.99
7237.62
7230.34
7223.19
7216.2
7209.43
7202.97
7196.74
7190.69
7184.8
7179.06
7173.46
7168.04
7162.87
7157.98
7153.43
7149.19
7145.35
7141.82
7138.55
7135.42
7132.39
7129.4
7126.59
7123.89
7121.38
7119.07
7117.07
7115.4
7114.05
7112.97
7112.12
7111.45
7110.91
7110.48
7110.08
7109.77
7109.58
7109.54
7109.65
7109.91
7110.29
7110.81
7111.45
7112.23
7113.14
7114.17
7115.32
7116.58
7117.94
7119.42
7120.99
7122.66
7124.43
7126.28
7128.19
7130.15
7132.17
7134.23
7136.34
7138.51
7140.7
7142.91
7145.17
7147.47
7149.81
7152.21
7154.63
7157.05
7159.48
7161.9
7164.3
7166.7
7169.14
7171.57
7174.02
7176.48
7178.93
7181.39
7183.85
7186.28
7188.68
7191.19
7193.71
7196.43
7199.48
7202.04
7201.89
7200.85
7207.33
7209.68
7211.84
7214.18
7216.51
7217.86
7220.45
7222.16
7223.88
7225.58
7227.04
7228.42
7229.72
7229.87
7231.04
7231.52
7232.69
7233.34
7236.98
7235.86
7230.37
7228.15
7225.76
7223.64
7221.84
7218.81
7214.92
7210.65
7205.99
7201.26
7195.99
7190.04
7183.61
7177.22
7170.18
7165.57
7157.3
7144.84
7135.43
7125.24
7115.28
7105.09
7094.95
7084.07
7072.42
7060.62
7048.62
7036.44
7024.18
7011.72
6999.06
6986.32
6973.53
6960.74
6947.98
6935.25
6922.59
6910.03
6897.61
6885.37
6873.33
6861.51
6849.93
6838.63
6827.61
6816.9
6806.52
6796.48
6786.79
6777.45
6768.48
6759.87
6751.63
6743.75
6736.24
6729.08
6722.25
6715.76
6709.59
6703.74
6698.17
6692.89
6687.85
6683.06
6678.48
6674.11
6669.93
6665.92
6662.08
6658.4
6654.88
6651.52
6648.33
6645.34
6642.55
6639.99
6637.66
6635.57
6633.74
6632.17
6630.86
6629.83
6629.08
6628.6
6628.41
6628.49
6628.84
6629.46
6630.34
6631.49
6632.89
6634.53
6636.42
6638.56
6640.92
6643.51
6646.3
6649.29
6652.48
6655.86
6659.41
6663.14
6667.04
6671.09
6675.28
6679.59
6684.04
6688.61
6693.28
6698.07
6702.94
6707.9
6712.93
6718.03
6723.18
6728.4
6733.66
6738.97
6744.3
6749.66
6755.04
6760.43
6765.83
6771.23
6776.63
6782.02
6787.39
6792.74
6798.06
6803.36
6808.62
6813.85
6819.04
6824.18
6829.27
6834.31
6839.29
6844.22
6849.09
6853.89
6858.63
6863.31
6867.91
6872.44
6876.9
6881.28
6885.59
6889.81
6893.96
6898.02
6902
6905.9
6909.72
6913.45
6917.09
6920.64
6924.11
6927.48
6930.77
6933.97
6937.08
6940.1
6943.03
6945.87
6948.62
6951.28
6953.85
6956.34
6958.74
6961.06
6963.29
6965.43
6967.49
6969.47
6971.37
6973.19
6974.94
6976.61
6978.2
6979.73
6981.19
6982.58
6983.92
6985.19
6986.4
6987.56
6988.67
6989.73
6990.74
6991.71
6992.65
6993.54
6994.41
6995.25
6996.06
6996.86
6997.63
6998.39
6999.14
6999.88
7000.61
7001.34
7002.07
7002.79
7003.52
7004.25
7004.98
7005.71
7006.44
7007.18
7007.91
7008.65
7009.39
7010.12
7010.87
7011.61
7012.35
7013.09
7013.84
7014.59
7015.34
7016.09
7016.84
7017.59
7018.35
7019.1
7019.85
7020.6
7021.35
7022.1
7022.85
7023.59
7024.32
7025.05
7025.77
7026.48
7027.18
7027.88
7028.55
7029.22
7029.87
7030.51
7031.12
7031.72
7032.31
7032.87
7033.41
7033.92
7034.42
7034.89
7035.33
7035.75
7036.15
7036.51
7036.85
7037.17
7037.45
7037.71
7037.94
7038.14
7038.32
7038.46
7038.58
7038.67
7038.73
7038.76
7038.76
7038.74
7038.7
7038.62
7038.52
7038.4
7038.25
7038.07
7037.87
7037.64
7037.39
7037.12
7036.82
7036.5
7036.16
7035.8
7035.42
7035.02
7034.6
7034.16
7033.7
7033.23
7032.73
7032.22
7031.69
7031.15
7030.59
7030.02
7029.43
7028.82
7028.2
7027.57
7026.92
7026.27
7025.61
7024.93
7024.2
7023.5
7022.72
7022.03
7021.42
7020.7
7020.01
7019.28
7018.54
7017.79
7017.04
7016.28
7015.5
7014.72
7013.93
7013.13
7012.32
7011.5
7010.68
7009.82
7008.99
7008.17
7007.32
7006.47
7005.6
7004.74
7003.85
7002.98
7002.08
7001.21
7000.3
6999.43
6998.51
6997.64
6996.68
6995.82
6994.99
6994.09
6993.32
6992.3
6991.51
6990.09
6989.38
6988.8
6988.08
6987.33
6986.58
6985.81
6985.06
6984.33
6983.61
6982.89
6982.18
6981.47
6980.76
6980.06
6979.36
6978.66
6977.97
6977.27
6976.57
6975.87
6975.17
6974.47
6973.77
6973.06
6972.36
6971.66
6970.96
6970.27
6969.57
6968.88
6968.19
6967.51
6966.82
6966.14
6965.47
6964.8
6964.13
6963.47
6962.81
6962.16
6961.51
6960.86
6960.23
6959.59
6958.96
6958.33
6957.71
6957.09
6956.47
6955.85
6955.23
6954.62
6954.01
6953.39
6952.78
6952.16
6951.54
6950.92
6950.29
6949.66
6949.02
6948.37
6947.72
6947.05
6946.38
6945.69
6944.99
6944.28
6943.55
6942.81
6942.05
6941.27
6940.47
6939.65
6938.81
6937.95
6937.06
6936.15
6935.21
6934.25
6933.26
6932.24
6931.2
6930.12
6929.02
6927.88
6926.72
6925.52
6924.29
6923.03
6921.71
6920.62
6918.39
7081.38
7070.11
7062.07
7054.18
7046.44
7038.96
7031.61
7024.42
7017.42
7010.67
7004.17
6997.9
6991.83
6985.96
6980.27
6974.75
6969.44
6964.37
6959.57
6955.07
6950.85
6946.93
6943.27
6939.86
6936.65
6933.61
6930.72
6927.96
6925.34
6922.93
6920.77
6918.87
6917.24
6915.9
6914.8
6913.93
6913.22
6912.64
6912.17
6911.78
6911.52
6911.41
6911.44
6911.61
6911.91
6912.35
6912.92
6913.63
6914.47
6915.44
6916.52
6917.71
6919.02
6920.44
6921.97
6923.6
6925.33
6927.16
6929.07
6931.03
6933.06
6935.15
6937.29
6939.5
6941.75
6944.03
6946.31
6948.63
6950.98
6953.36
6955.8
6958.27
6960.76
6963.25
6965.75
6968.24
6970.72
6973.21
6975.73
6978.25
6980.79
6983.31
6985.83
6988.34
6990.85
6993.36
6995.83
6998.24
7000.49
7002.77
7005.22
7007.83
7011.03
7013.86
7013.37
7011.04
7018.02
7020.13
7021.99
7024.16
7025.9
7026.67
7028.9
7030.03
7031.23
7032.35
7033.41
7034.12
7035.03
7035.53
7035.42
7035.35
7035.5
7035.54
7038.76
7036.67
7029.39
7025.94
7022.29
7018.96
7015.94
7011.59
7006.27
7000.55
6994.52
6988.45
6981.85
6974.53
6966.81
6959.13
6950.83
6945.22
6935.66
6921.88
6911.04
6900.13
6889.23
6877.86
6866.77
6854.84
6842.3
6829.63
6816.9
6804.1
6791.26
6778.32
6765.33
6752.35
6739.43
6726.58
6713.85
6701.26
6688.85
6676.63
6664.65
6652.92
6641.49
6630.34
6619.51
6609.02
6598.86
6589.07
6579.64
6570.59
6561.9
6553.57
6545.62
6538.02
6530.79
6523.9
6517.34
6511.1
6505.17
6499.54
6494.18
6489.09
6484.23
6479.61
6475.19
6470.98
6466.95
6463.1
6459.42
6455.92
6452.58
6449.43
6446.46
6443.7
6441.17
6438.86
6436.81
6435.01
6433.47
6432.19
6431.19
6430.47
6430.04
6429.88
6430.01
6430.4
6431.07
6431.99
6433.19
6434.64
6436.34
6438.3
6440.49
6442.91
6445.55
6448.4
6451.46
6454.71
6458.16
6461.78
6465.58
6469.53
6473.64
6477.89
6482.27
6486.79
6491.42
6496.15
6500.99
6505.92
6510.94
6516.03
6521.19
6526.41
6531.68
6536.99
6542.34
6547.72
6553.13
6558.56
6563.99
6569.44
6574.88
6580.31
6585.74
6591.15
6596.54
6601.9
6607.22
6612.52
6617.78
6622.99
6628.16
6633.28
6638.34
6643.35
6648.3
6653.19
6658.01
6662.77
6667.46
6672.08
6676.63
6681.1
6685.49
6689.81
6694.05
6698.2
6702.28
6706.26
6710.17
6713.99
6717.73
6721.38
6724.94
6728.4
6731.78
6735.07
6738.27
6741.39
6744.4
6747.33
6750.17
6752.92
6755.58
6758.15
6760.63
6763.02
6765.33
6767.55
6769.69
6771.74
6773.71
6775.6
6777.41
6779.14
6780.8
6782.38
6783.9
6785.34
6786.72
6788.04
6789.29
6790.49
6791.64
6792.73
6793.78
6794.78
6795.73
6796.65
6797.54
6798.39
6799.22
6800.02
6800.79
6801.56
6802.3
6803.04
6803.76
6804.48
6805.19
6805.91
6806.62
6807.33
6808.05
6808.76
6809.48
6810.2
6810.93
6811.65
6812.38
6813.11
6813.84
6814.58
6815.32
6816.06
6816.8
6817.55
6818.3
6819.05
6819.8
6820.56
6821.32
6822.08
6822.84
6823.6
6824.36
6825.12
6825.88
6826.64
6827.39
6828.14
6828.88
6829.61
6830.34
6831.06
6831.77
6832.46
6833.14
6833.81
6834.46
6835.09
6835.7
6836.3
6836.87
6837.42
6837.95
6838.46
6838.94
6839.4
6839.83
6840.23
6840.61
6840.96
6841.28
6841.57
6841.83
6842.07
6842.27
6842.45
6842.6
6842.72
6842.81
6842.87
6842.91
6842.91
6842.89
6842.84
6842.76
6842.66
6842.53
6842.38
6842.19
6841.99
6841.76
6841.51
6841.23
6840.93
6840.61
6840.26
6839.9
6839.51
6839.11
6838.68
6838.24
6837.77
6837.29
6836.79
6836.28
6835.74
6835.2
6834.62
6834.05
6833.45
6832.85
6832.25
6831.61
6830.97
6830.27
6829.59
6828.84
6828.17
6827.59
6826.9
6826.24
6825.53
6824.82
6824.09
6823.36
6822.61
6821.86
6821.09
6820.32
6819.54
6818.75
6817.93
6817.13
6816.28
6815.46
6814.66
6813.82
6812.99
6812.13
6811.28
6810.4
6809.53
6808.63
6807.76
6806.86
6805.98
6805.05
6804.18
6803.19
6802.34
6801.44
6800.6
6799.64
6798.82
6797.39
6796.68
6796.1
6795.38
6794.6
6793.8
6793
6792.19
6791.4
6790.64
6789.88
6789.13
6788.38
6787.64
6786.91
6786.17
6785.45
6784.72
6784
6783.29
6782.57
6781.86
6781.15
6780.43
6779.72
6779.01
6778.3
6777.59
6776.88
6776.17
6775.46
6774.76
6774.05
6773.35
6772.66
6771.96
6771.27
6770.59
6769.91
6769.23
6768.56
6767.89
6767.22
6766.57
6765.91
6765.26
6764.62
6763.98
6763.35
6762.72
6762.1
6761.48
6760.86
6760.25
6759.64
6759.03
6758.42
6757.82
6757.21
6756.61
6756
6755.39
6754.78
6754.16
6753.54
6752.91
6752.28
6751.64
6750.99
6750.32
6749.65
6748.96
6748.26
6747.55
6746.82
6746.07
6745.3
6744.52
6743.71
6742.88
6742.03
6741.15
6740.25
6739.33
6738.37
6737.39
6736.38
6735.34
6734.28
6733.18
6732.05
6730.89
6729.7
6728.47
6727.22
6725.89
6724.81
6722.58
6882.78
6871.55
6863.35
6855.34
6847.46
6839.86
6832.42
6825.18
6818.15
6811.37
6804.84
6798.55
6792.48
6786.62
6780.96
6775.5
6770.25
6765.25
6760.51
6755.97
6751.77
6747.83
6744.13
6740.67
6737.43
6734.38
6731.52
6728.82
6726.33
6724.04
6721.98
6720.15
6718.58
6717.27
6716.19
6715.3
6714.55
6713.94
6713.45
6713.11
6712.92
6712.85
6712.93
6713.15
6713.52
6714.03
6714.68
6715.46
6716.37
6717.4
6718.54
6719.79
6721.15
6722.63
6724.23
6725.94
6727.75
6729.65
6731.63
6733.67
6735.78
6737.95
6740.17
6742.49
6744.83
6747.2
6749.58
6751.97
6754.38
6756.83
6759.33
6761.86
6764.42
6767
6769.58
6772.16
6774.73
6777.29
6779.88
6782.46
6785.06
6787.66
6790.24
6792.79
6795.31
6797.81
6800.3
6802.75
6805.22
6807.66
6810.05
6812.22
6814.29
6816.71
6819.24
6822.53
6825.42
6824.36
6820.53
6828
6829.89
6831.03
6832.77
6834.16
6834.28
6836.04
6836.62
6837.33
6837.98
6838.49
6838.64
6838.76
6838.49
6837.46
6836.51
6835.75
6834.93
6837.77
6834.4
6825
6820.08
6815.07
6810.44
6806.13
6800.4
6793.63
6786.43
6779.01
6771.66
6763.74
6755.09
6746.21
6736.73
6727.52
6718.15
6711.05
6700.24
6684.81
6672.66
6660.31
6647.86
6635.76
6622.96
6609.69
6596.41
6583.22
6569.99
6556.84
6543.69
6530.59
6517.61
6504.81
6492.18
6479.76
6467.57
6455.65
6444.03
6432.73
6421.75
6411.1
6400.81
6390.89
6381.34
6372.17
6363.37
6354.94
6346.87
6339.18
6331.84
6324.85
6318.2
6311.86
6305.84
6300.12
6294.68
6289.52
6284.6
6279.92
6275.46
6271.22
6267.17
6263.32
6259.65
6256.16
6252.86
6249.75
6246.83
6244.12
6241.63
6239.38
6237.37
6235.62
6234.13
6232.91
6231.96
6231.3
6230.91
6230.81
6230.99
6231.44
6232.17
6233.16
6234.42
6235.94
6237.72
6239.75
6242.02
6244.51
6247.22
6250.14
6253.27
6256.61
6260.14
6263.84
6267.72
6271.75
6275.93
6280.26
6284.72
6289.31
6294.02
6298.83
6303.74
6308.74
6313.83
6318.99
6324.22
6329.51
6334.84
6340.22
6345.63
6351.07
6356.53
6362.02
6367.51
6373.01
6378.5
6383.98
6389.45
6394.9
6400.34
6405.74
6411.11
6416.44
6421.73
6426.98
6432.18
6437.32
6442.42
6447.46
6452.43
6457.35
6462.19
6466.97
6471.69
6476.33
6480.89
6485.38
6489.79
6494.12
6498.37
6502.54
6506.63
6510.63
6514.54
6518.37
6522.12
6525.77
6529.33
6532.81
6536.19
6539.49
6542.69
6545.8
6548.82
6551.75
6554.58
6557.33
6559.99
6562.55
6565.03
6567.41
6569.71
6571.92
6574.05
6576.09
6578.05
6579.92
6581.72
6583.44
6585.08
6586.65
6588.15
6589.58
6590.94
6592.24
6593.48
6594.67
6595.79
6596.87
6597.9
6598.88
6599.82
6600.72
6601.59
6602.43
6603.24
6604.02
6604.78
6605.53
6606.26
6606.97
6607.68
6608.38
6609.08
6609.77
6610.47
6611.16
6611.86
6612.56
6613.26
6613.97
6614.68
6615.39
6616.11
6616.83
6617.55
6618.28
6619.01
6619.75
6620.49
6621.23
6621.98
6622.74
6623.49
6624.25
6625.02
6625.78
6626.55
6627.33
6628.1
6628.87
6629.65
6630.42
6631.19
6631.95
6632.71
6633.46
6634.21
6634.95
6635.67
6636.39
6637.09
6637.77
6638.44
6639.09
6639.72
6640.33
6640.92
6641.49
6642.04
6642.56
6643.05
6643.52
6643.96
6644.38
6644.77
6645.12
6645.45
6645.75
6646.02
6646.26
6646.48
6646.66
6646.81
6646.93
6647.02
6647.09
6647.12
6647.13
6647.1
6647.05
6646.97
6646.86
6646.73
6646.57
6646.39
6646.18
6645.95