/*--------------------------------*- C++ -*----------------------------------*\
| =========                 |                                                 |
| \\      /  F ield         | OpenFOAM: The Open Source CFD Toolbox           |
|  \\    /   O peration     | Version:  v2006                                 |
|   \\  /    A nd           | Website:  www.openfoam.com                      |
|    \\/     M anipulation  |                                                 |
\*---------------------------------------------------------------------------*/
FoamFile
{
    version     2.0;
    format      ascii;
    class       surfaceScalarField;
    location    "9.5";
    object      phi;
}
// * * * * * * * * * * * * * * * * * * * * * * * * * * * * * * * * * * * * * //

dimensions      [0 3 -1 0 0 0 0];
oriented        oriented;


internalField   nonuniform List<scalar> 
65390
(
-2.65945e-05
9.83702e-06
-2.94898e-05
2.89548e-06
-3.09016e-05
1.41191e-06
-2.88187e-05
-2.08278e-06
-2.33975e-05
-5.42102e-06
-1.73714e-05
-6.02592e-06
-1.14352e-05
-5.93611e-06
-5.65179e-06
-5.78324e-06
2.26245e-07
-5.87794e-06
5.80773e-06
-5.58144e-06
1.00825e-05
-4.27478e-06
1.32944e-05
-3.21201e-06
1.60102e-05
-2.71595e-06
1.8582e-05
-2.57206e-06
2.1399e-05
-2.81748e-06
2.41157e-05
-2.7172e-06
2.71564e-05
-3.04141e-06
3.02755e-05
-3.11988e-06
3.24035e-05
-2.12897e-06
3.29445e-05
-5.41993e-07
3.23957e-05
5.47692e-07
3.11524e-05
1.24217e-06
2.8705e-05
2.44628e-06
2.48321e-05
3.87179e-06
2.03714e-05
4.45957e-06
1.69887e-05
3.38159e-06
1.55318e-05
1.45577e-06
1.58005e-05
-2.69569e-07
1.72131e-05
-1.41341e-06
1.89489e-05
-1.73647e-06
1.9912e-05
-9.63618e-07
1.98597e-05
5.18173e-08
1.87365e-05
1.12292e-06
1.6993e-05
1.74335e-06
1.42686e-05
2.72434e-06
9.47867e-06
4.78989e-06
4.51559e-06
4.96314e-06
8.13526e-07
3.70218e-06
-2.28876e-06
3.10243e-06
-4.50789e-06
2.21929e-06
-5.19615e-06
6.88404e-07
-5.23722e-06
4.1194e-08
-5.35473e-06
1.17576e-07
-6.30866e-06
9.53946e-07
-7.65306e-06
1.34434e-06
-8.12541e-06
4.72208e-07
-7.53884e-06
-5.8679e-07
-6.74087e-06
-7.98272e-07
-6.25828e-06
-4.82971e-07
-6.74636e-06
4.87609e-07
-7.28932e-06
5.42411e-07
-7.22662e-06
-6.32944e-08
-6.29823e-06
-9.29008e-07
-4.92513e-06
-1.37372e-06
-3.31482e-06
-1.61092e-06
-1.5944e-06
-1.721e-06
1.44775e-07
-1.73971e-06
1.73367e-06
-1.58937e-06
3.04471e-06
-1.31146e-06
3.76753e-06
-7.23151e-07
3.90354e-06
-1.36265e-07
3.59404e-06
3.0934e-07
3.17567e-06
4.18304e-07
2.93225e-06
2.43453e-07
2.92341e-06
8.95501e-09
3.15547e-06
-2.31869e-07
3.67541e-06
-5.19668e-07
4.67597e-06
-1.00024e-06
6.26614e-06
-1.5898e-06
8.27789e-06
-2.01135e-06
1.05005e-05
-2.22218e-06
1.26043e-05
-2.10337e-06
1.44485e-05
-1.84373e-06
1.60079e-05
-1.55901e-06
1.73732e-05
-1.36488e-06
1.85695e-05
-1.19591e-06
1.9358e-05
-7.88239e-07
1.86929e-05
6.65437e-07
1.71591e-05
1.53396e-06
1.6339e-05
8.20053e-07
1.54042e-05
9.34913e-07
1.5005e-05
3.99222e-07
1.45872e-05
4.17829e-07
1.44874e-05
9.98212e-08
1.46559e-05
-1.68392e-07
1.45168e-05
1.39155e-07
1.44096e-05
1.072e-07
1.45462e-05
-1.36561e-07
1.48241e-05
-2.77886e-07
1.50813e-05
-2.57147e-07
1.54216e-05
-3.40333e-07
1.57631e-05
-3.41467e-07
1.59816e-05
-2.18452e-07
1.61526e-05
-1.70863e-07
1.62112e-05
-5.84858e-08
1.63004e-05
-8.9102e-08
1.62642e-05
3.63103e-08
1.61214e-05
1.4289e-07
1.50495e-05
1.07188e-06
1.31528e-05
1.8968e-06
1.1728e-05
1.42479e-06
1.12263e-05
5.01631e-07
1.14876e-05
-2.61404e-07
1.16806e-05
-1.93092e-07
1.22229e-05
-5.42497e-07
1.28953e-05
-6.72627e-07
1.33549e-05
-4.59799e-07
1.36234e-05
-2.68667e-07
1.3904e-05
-2.80864e-07
1.42946e-05
-3.90822e-07
1.46219e-05
-3.27478e-07
1.49635e-05
-3.41853e-07
1.52404e-05
-2.77065e-07
1.54179e-05
-1.77749e-07
1.53548e-05
6.28476e-08
1.51509e-05
2.03755e-07
1.42908e-05
8.59906e-07
1.31823e-05
1.10834e-06
1.25764e-05
6.0585e-07
1.262e-05
-4.36707e-08
1.30201e-05
-4.00101e-07
1.32704e-05
-2.50371e-07
1.37297e-05
-4.59187e-07
1.42544e-05
-5.24619e-07
1.45807e-05
-3.26142e-07
1.48632e-05
-2.82345e-07
1.51445e-05
-2.81097e-07
1.5393e-05
-2.48373e-07
1.56601e-05
-2.66783e-07
1.59243e-05
-2.6396e-07
1.61494e-05
-2.24942e-07
1.63399e-05
-1.90244e-07
1.65069e-05
-1.66821e-07
1.66624e-05
-1.55403e-07
1.6806e-05
-1.43451e-07
1.69353e-05
-1.29206e-07
1.7049e-05
-1.13677e-07
1.71448e-05
-9.58772e-08
1.72252e-05
-8.04204e-08
1.72897e-05
-6.45293e-08
1.73311e-05
-4.15191e-08
1.73444e-05
-1.33288e-08
1.73342e-05
1.00536e-08
1.73038e-05
3.03826e-08
1.72581e-05
4.5558e-08
1.71939e-05
6.40528e-08
1.71049e-05
8.89613e-08
1.69818e-05
1.22966e-07
1.68308e-05
1.50896e-07
1.66666e-05
1.64219e-07
1.64862e-05
1.80405e-07
1.62807e-05
2.05507e-07
1.60461e-05
2.34692e-07
1.57842e-05
2.62111e-07
1.54989e-05
2.85503e-07
1.5193e-05
3.0611e-07
1.4865e-05
3.28248e-07
1.4511e-05
3.54394e-07
1.41309e-05
3.80359e-07
1.37267e-05
4.04607e-07
1.32988e-05
4.2821e-07
1.28481e-05
4.50986e-07
1.23744e-05
4.74039e-07
1.18714e-05
5.03255e-07
1.13366e-05
5.35158e-07
1.07822e-05
5.54607e-07
1.02128e-05
5.6961e-07
9.62173e-06
5.91175e-07
8.99862e-06
6.23191e-07
8.34419e-06
6.54472e-07
7.68022e-06
6.63988e-07
7.01399e-06
6.66229e-07
6.33879e-06
6.75181e-07
5.65233e-06
6.86444e-07
4.94504e-06
7.07289e-07
4.22031e-06
7.24737e-07
3.49779e-06
7.22516e-07
2.78902e-06
7.08761e-07
2.10233e-06
6.86668e-07
1.43834e-06
6.63969e-07
7.89579e-07
6.48747e-07
1.58721e-07
6.30855e-07
-4.54277e-07
6.13004e-07
-1.0529e-06
5.98644e-07
-1.62773e-06
5.74855e-07
-2.1707e-06
5.43009e-07
-2.68564e-06
5.1499e-07
-3.18239e-06
4.96795e-07
-3.66643e-06
4.84078e-07
-4.13502e-06
4.68614e-07
-4.58517e-06
4.50189e-07
-5.01305e-06
4.27914e-07
-5.41838e-06
4.05381e-07
-5.80426e-06
3.85939e-07
-6.17359e-06
3.69385e-07
-6.53158e-06
3.58031e-07
-6.88027e-06
3.48726e-07
-7.21523e-06
3.34968e-07
-7.53341e-06
3.18176e-07
-7.82931e-06
2.95881e-07
-8.10812e-06
2.78777e-07
-8.37465e-06
2.66483e-07
-8.63102e-06
2.56326e-07
-8.87652e-06
2.45464e-07
-9.10924e-06
2.32702e-07
-9.32612e-06
2.16861e-07
-9.52894e-06
2.02799e-07
-9.72188e-06
1.92905e-07
-9.90887e-06
1.86934e-07
-1.00877e-05
1.78814e-07
-1.02488e-05
1.61038e-07
-1.03933e-05
1.44451e-07
-1.05277e-05
1.34535e-07
-1.06535e-05
1.25779e-07
-1.07724e-05
1.18999e-07
-1.08878e-05
1.15489e-07
-1.09957e-05
1.08044e-07
-1.10917e-05
9.61044e-08
-1.11729e-05
8.12024e-08
-1.12431e-05
7.03146e-08
-1.13057e-05
6.25922e-08
-1.13617e-05
5.60437e-08
-1.14144e-05
5.26508e-08
-1.14629e-05
4.85375e-08
-1.15039e-05
4.10746e-08
-1.15349e-05
3.10396e-08
-1.15551e-05
2.02948e-08
-1.15674e-05
1.23471e-08
-1.15739e-05
6.50128e-09
-1.15777e-05
3.75106e-09
-1.15804e-05
2.58396e-09
-1.15777e-05
-2.78073e-09
-1.15664e-05
-1.12957e-08
-1.15461e-05
-2.03474e-08
-1.15186e-05
-2.7547e-08
-1.14869e-05
-3.1695e-08
-1.1452e-05
-3.48858e-08
-1.14138e-05
-3.8218e-08
-1.13718e-05
-4.20195e-08
-1.1327e-05
-4.49529e-08
-1.12793e-05
-4.77183e-08
-1.12277e-05
-5.16715e-08
-1.11697e-05
-5.80653e-08
-1.11044e-05
-6.54392e-08
-1.10351e-05
-6.9295e-08
-1.09637e-05
-7.14457e-08
-1.08918e-05
-7.18539e-08
-1.08215e-05
-7.03121e-08
-1.07475e-05
-7.40697e-08
-1.06629e-05
-8.45479e-08
-1.05739e-05
-8.90809e-08
-1.04836e-05
-9.02954e-08
-1.03919e-05
-9.17609e-08
-1.03004e-05
-9.15762e-08
-1.02076e-05
-9.28398e-08
-1.01099e-05
-9.77652e-08
-1.00074e-05
-1.02555e-07
-9.90127e-06
-1.06134e-07
-9.79372e-06
-1.07582e-07
-9.68532e-06
-1.08442e-07
-9.57439e-06
-1.10976e-07
-9.46019e-06
-1.14243e-07
-9.34223e-06
-1.18e-07
-9.21956e-06
-1.22702e-07
-9.09468e-06
-1.24915e-07
-8.97044e-06
-1.2427e-07
-8.84761e-06
-1.22855e-07
-8.72284e-06
-1.24802e-07
-8.5907e-06
-1.32164e-07
-8.45308e-06
-1.37646e-07
-8.31342e-06
-1.39686e-07
-8.17183e-06
-1.41617e-07
-8.02805e-06
-1.43814e-07
-7.88381e-06
-1.44264e-07
-7.74034e-06
-1.43505e-07
-7.59456e-06
-1.4581e-07
-7.44342e-06
-1.51154e-07
-7.28753e-06
-1.55901e-07
-7.12864e-06
-1.58904e-07
-6.96713e-06
-1.61513e-07
-6.80241e-06
-1.64723e-07
-6.63523e-06
-1.67186e-07
-6.46887e-06
-1.66379e-07
-6.30261e-06
-1.66274e-07
-6.13067e-06
-1.71948e-07
-5.95227e-06
-1.78417e-07
-5.77131e-06
-1.80972e-07
-5.58808e-06
-1.83242e-07
-5.40193e-06
-1.86161e-07
-5.213e-06
-1.88946e-07
-5.02385e-06
-1.89157e-07
-4.83278e-06
-1.91085e-07
-4.63744e-06
-1.95349e-07
-4.43755e-06
-1.99902e-07
-4.23433e-06
-2.03245e-07
-4.0282e-06
-2.06155e-07
-3.81988e-06
-2.08352e-07
-3.61138e-06
-2.08529e-07
-3.40146e-06
-2.09953e-07
-3.18941e-06
-2.1208e-07
-2.9749e-06
-2.14544e-07
-2.75784e-06
-2.17082e-07
-2.53961e-06
-2.18256e-07
-2.32297e-06
-2.16661e-07
-2.10761e-06
-2.15377e-07
-1.89264e-06
-2.14972e-07
-1.67775e-06
-2.14877e-07
-1.46469e-06
-2.13051e-07
-1.25535e-06
-2.09331e-07
-1.05004e-06
-2.05312e-07
-8.48503e-07
-2.01553e-07
-6.50992e-07
-1.97529e-07
-4.58947e-07
-1.92064e-07
-2.73773e-07
-1.85189e-07
-9.58195e-08
-1.77962e-07
7.51915e-08
-1.71014e-07
2.39781e-07
-1.64587e-07
3.98127e-07
-1.58338e-07
5.50158e-07
-1.52018e-07
6.95879e-07
-1.45702e-07
8.35458e-07
-1.39556e-07
9.69112e-07
-1.33631e-07
1.0972e-06
-1.28067e-07
1.21992e-06
-1.2271e-07
1.33738e-06
-1.17442e-07
1.4498e-06
-1.12419e-07
1.55754e-06
-1.07734e-07
1.66079e-06
-1.03247e-07
1.75951e-06
-9.87145e-08
1.85383e-06
-9.43184e-08
1.94416e-06
-9.03268e-08
2.0309e-06
-8.6731e-08
2.11422e-06
-8.33154e-08
2.19408e-06
-7.98584e-08
2.2704e-06
-7.63131e-08
2.34323e-06
-7.2827e-08
2.41296e-06
-6.97405e-08
2.48002e-06
-6.70767e-08
2.54463e-06
-6.46264e-08
2.60677e-06
-6.21531e-08
2.66646e-06
-5.96978e-08
2.72378e-06
-5.73183e-08
2.77881e-06
-5.50241e-08
2.83165e-06
-5.28201e-08
2.88238e-06
-5.07113e-08
2.93118e-06
-4.87858e-08
2.97815e-06
-4.69712e-08
3.02331e-06
-4.51572e-08
3.06667e-06
-4.33617e-08
3.10826e-06
-4.15727e-08
3.14807e-06
-3.97924e-08
3.1861e-06
-3.79995e-08
3.2224e-06
-3.62574e-08
3.2571e-06
-3.46644e-08
3.29026e-06
-3.31313e-08
3.32185e-06
-3.15718e-08
3.35186e-06
-2.99975e-08
3.38017e-06
-2.83065e-08
3.40685e-06
-2.66579e-08
3.43195e-06
-2.50763e-08
3.45549e-06
-2.35157e-08
3.47746e-06
-2.19401e-08
3.49787e-06
-2.03781e-08
3.51673e-06
-1.88215e-08
3.53388e-06
-1.71129e-08
3.54916e-06
-1.52328e-08
3.56263e-06
-1.34296e-08
3.57458e-06
-1.19085e-08
3.58523e-06
-1.06068e-08
3.5944e-06
-9.12618e-09
3.60166e-06
-7.21329e-09
3.60697e-06
-5.27785e-09
3.61076e-06
-3.77474e-09
3.61324e-06
-2.47576e-09
3.61435e-06
-1.11839e-09
3.6139e-06
4.33329e-10
3.61177e-06
2.14115e-09
3.60811e-06
3.68444e-09
3.6027e-06
5.46748e-09
3.59544e-06
7.33354e-09
3.58682e-06
8.69548e-09
3.57737e-06
9.51513e-09
3.56678e-06
1.06098e-08
3.55475e-06
1.20281e-08
3.54126e-06
1.34588e-08
3.52638e-06
1.48395e-08
3.51014e-06
1.62144e-08
3.49283e-06
1.729e-08
3.47465e-06
1.8176e-08
3.45526e-06
1.93876e-08
3.43452e-06
2.0752e-08
3.4127e-06
2.18373e-08
3.39025e-06
2.24705e-08
3.3671e-06
2.31817e-08
3.34311e-06
2.40314e-08
3.3184e-06
2.47648e-08
3.29301e-06
2.54437e-08
3.26651e-06
2.65443e-08
3.2391e-06
2.74492e-08
3.21115e-06
2.7978e-08
3.18276e-06
2.84057e-08
3.15433e-06
2.84287e-08
3.12568e-06
2.8653e-08
3.09688e-06
2.87853e-08
3.06645e-06
3.04323e-08
3.03492e-06
3.15179e-08
3.00326e-06
3.16589e-08
2.97302e-06
3.0234e-08
2.94198e-06
3.1039e-08
2.91031e-06
3.167e-08
2.87764e-06
3.26607e-08
2.8448e-06
3.28327e-08
2.81387e-06
3.09131e-08
2.78219e-06
3.16672e-08
2.75185e-06
3.03312e-08
2.72099e-06
3.08525e-08
2.69037e-06
3.06097e-08
2.66371e-06
2.66608e-08
2.63707e-06
2.66339e-08
2.60548e-06
3.15921e-08
2.57958e-06
2.59034e-08
2.54791e-06
3.16831e-08
2.51564e-06
3.22779e-08
2.50926e-06
6.39469e-09
2.49922e-06
1.00488e-08
2.4668e-06
3.24399e-08
2.45973e-06
7.07441e-09
2.39772e-06
6.20309e-08
2.27985e-06
1.17874e-07
2.09004e-06
1.89818e-07
1.91379e-06
1.76266e-07
1.81469e-06
9.91051e-08
1.72542e-06
8.92799e-08
1.66458e-06
6.08445e-08
1.60967e-06
5.49178e-08
1.56035e-06
4.93311e-08
1.51178e-06
4.8581e-08
1.46699e-06
4.47944e-08
1.42907e-06
3.79256e-08
1.39659e-06
3.24869e-08
1.36794e-06
2.86619e-08
1.36762e-06
3.26801e-10
1.34308e-06
2.45544e-08
1.29016e-06
5.29413e-08
1.28029e-06
9.88136e-09
1.22552e-06
5.47955e-08
1.13448e-06
9.1049e-08
1.00981e-06
1.24688e-07
9.76821e-07
3.30077e-08
1.03277e-06
-5.5935e-08
1.04233e-06
-9.53452e-09
1.05208e-06
-9.73467e-09
1.04026e-06
1.18405e-08
1.02768e-06
1.26031e-08
1.00324e-06
2.44567e-08
9.79664e-07
2.35953e-08
9.44152e-07
3.55337e-08
9.20526e-07
2.36491e-08
8.94806e-07
2.57446e-08
8.72434e-07
2.23988e-08
8.47321e-07
2.51436e-08
8.27707e-07
1.96481e-08
7.72115e-07
5.56273e-08
7.28544e-07
4.36028e-08
6.49012e-07
7.95477e-08
5.49491e-07
9.94885e-08
4.91448e-07
5.79169e-08
3.04593e-07
1.86498e-07
2.78342e-07
2.56786e-08
5.16311e-07
-2.38991e-07
9.36675e-07
-4.22154e-07
1.36213e-06
-4.27102e-07
1.78872e-06
-4.28067e-07
2.1393e-06
-3.51919e-07
2.39784e-06
-2.59732e-07
2.56616e-06
-1.69374e-07
2.68794e-06
-1.22713e-07
2.78702e-06
-9.9909e-08
2.87481e-06
-8.85151e-08
2.93502e-06
-6.08418e-08
2.97411e-06
-3.96636e-08
3.00795e-06
-3.43357e-08
3.03822e-06
-3.072e-08
3.0735e-06
-3.56709e-08
3.10691e-06
-3.37456e-08
3.12874e-06
-2.21201e-08
3.14488e-06
-1.64008e-08
3.1641e-06
-1.9439e-08
3.18552e-06
-2.16189e-08
3.20673e-06
-2.13832e-08
3.22761e-06
-2.10346e-08
3.2551e-06
-2.76244e-08
3.28836e-06
-3.33862e-08
3.31972e-06
-3.1464e-08
3.34524e-06
-2.56208e-08
3.37101e-06
-2.58621e-08
3.39984e-06
-2.89219e-08
3.43546e-06
-3.57049e-08
3.47555e-06
-4.01737e-08
3.51898e-06
-4.34932e-08
3.56755e-06
-4.86245e-08
3.61783e-06
-5.03167e-08
3.66625e-06
-4.84311e-08
3.71296e-06
-4.67116e-08
3.76467e-06
-5.16897e-08
3.82632e-06
-6.16227e-08
3.89901e-06
-7.26688e-08
3.9802e-06
-8.11627e-08
4.06483e-06
-8.46043e-08
4.15153e-06
-8.66738e-08
4.23905e-06
-8.74898e-08
4.33093e-06
-9.18448e-08
4.42744e-06
-9.64622e-08
4.52643e-06
-9.89497e-08
4.62994e-06
-1.03453e-07
4.7393e-06
-1.09299e-07
4.8533e-06
-1.13935e-07
4.96898e-06
-1.15602e-07
5.08438e-06
-1.1531e-07
5.19881e-06
-1.14338e-07
5.31319e-06
-1.14274e-07
5.42955e-06
-1.16257e-07
5.54914e-06
-1.1949e-07
5.67296e-06
-1.2371e-07
5.80063e-06
-1.27562e-07
5.93103e-06
-1.30281e-07
6.06348e-06
-1.32328e-07
6.19741e-06
-1.33812e-07
6.33275e-06
-1.35202e-07
6.46952e-06
-1.36619e-07
6.60826e-06
-1.38587e-07
6.74901e-06
-1.40581e-07
6.89114e-06
-1.41964e-07
7.03408e-06
-1.42772e-07
7.17671e-06
-1.42454e-07
7.32014e-06
-1.43244e-07
7.46391e-06
-1.43565e-07
7.61012e-06
-1.45988e-07
7.75677e-06
-1.46407e-07
7.90313e-06
-1.46122e-07
8.05003e-06
-1.4667e-07
8.1967e-06
-1.46456e-07
8.34376e-06
-1.46842e-07
8.49165e-06
-1.4765e-07
8.64131e-06
-1.49391e-07
8.79819e-06
-1.56611e-07
8.96011e-06
-1.61679e-07
9.13305e-06
-1.72695e-07
9.30888e-06
-1.75573e-07
-1.88115e-07
-1.92002e-05
1.22222e-05
-2.05586e-05
4.25392e-06
-2.16652e-05
2.51852e-06
-2.04899e-05
-3.25814e-06
-1.70826e-05
-8.82843e-06
-1.2411e-05
-1.06975e-05
-7.99426e-06
-1.03529e-05
-3.69469e-06
-1.00828e-05
2.41284e-07
-9.81384e-06
3.32222e-06
-8.66223e-06
5.22416e-06
-6.17645e-06
6.57922e-06
-4.56664e-06
8.07751e-06
-4.21364e-06
1.02624e-05
-4.75611e-06
1.32628e-05
-5.81692e-06
1.68803e-05
-6.33353e-06
2.03589e-05
-6.51848e-06
2.32125e-05
-5.97193e-06
2.52986e-05
-4.21328e-06
2.61373e-05
-1.37883e-06
2.53034e-05
1.38351e-06
2.32338e-05
3.31379e-06
2.04437e-05
5.23832e-06
1.75375e-05
6.77995e-06
1.53078e-05
6.69108e-06
1.44391e-05
4.25205e-06
1.52111e-05
6.85406e-07
1.67657e-05
-1.82283e-06
1.80413e-05
-2.68787e-06
1.90018e-05
-2.69601e-06
1.96444e-05
-1.60547e-06
1.90316e-05
6.6508e-07
1.70858e-05
3.06906e-06
1.40627e-05
4.76657e-06
1.051e-05
6.27702e-06
7.27502e-06
8.02474e-06
4.14558e-06
8.0924e-06
1.18963e-06
6.65791e-06
-1.65682e-06
5.94865e-06
-3.62028e-06
4.18257e-06
-4.53058e-06
1.59858e-06
-5.0866e-06
5.97187e-07
-5.62127e-06
6.52332e-07
-6.31938e-06
1.65227e-06
-6.90532e-06
1.93061e-06
-7.36808e-06
9.3543e-07
-7.19932e-06
-7.54974e-07
-6.79716e-06
-1.19974e-06
-6.37851e-06
-9.00839e-07
-6.20726e-06
3.17227e-07
-6.17067e-06
5.06758e-07
-6.20074e-06
-3.22517e-08
-5.73708e-06
-1.39166e-06
-4.64932e-06
-2.46049e-06
-3.29981e-06
-2.95944e-06
-1.9176e-06
-3.10228e-06
-6.9991e-07
-2.95655e-06
4.76593e-08
-2.33618e-06
4.78758e-07
-1.74192e-06
9.98697e-07
-1.24257e-06
1.8344e-06
-9.71583e-07
3.0884e-06
-9.44415e-07
4.26239e-06
-7.55595e-07
4.80452e-06
-2.98717e-07
4.84789e-06
-3.46083e-08
4.72868e-06
-1.12972e-07
4.69633e-06
-4.87761e-07
5.05509e-06
-1.35955e-06
6.04129e-06
-2.57663e-06
7.38866e-06
-3.35944e-06
8.84964e-06
-3.68393e-06
1.01881e-05
-3.44265e-06
1.10315e-05
-2.68799e-06
1.16337e-05
-2.16195e-06
1.23174e-05
-2.04943e-06
1.34396e-05
-2.31873e-06
1.51164e-05
-2.46568e-06
1.7518e-05
-1.73649e-06
1.9271e-05
-2.1922e-07
2.03487e-05
-2.57692e-07
2.01884e-05
1.09519e-06
1.89212e-05
1.66639e-06
1.82447e-05
1.09435e-06
1.72187e-05
1.12581e-06
1.65172e-05
5.33134e-07
1.58748e-05
7.81455e-07
1.52819e-05
6.99973e-07
1.519e-05
-4.48018e-08
1.55691e-05
-6.57164e-07
1.5613e-05
-3.01234e-07
1.57752e-05
-5.02727e-07
1.60496e-05
-6.16097e-07
1.62244e-05
-3.93396e-07
1.64097e-05
-3.56247e-07
1.66854e-05
-3.34359e-07
1.68577e-05
-2.61487e-07
1.70858e-05
-1.91802e-07
1.72171e-05
1.15014e-08
1.78172e-05
4.71756e-07
1.83397e-05
1.37426e-06
1.84923e-05
1.27218e-06
1.75444e-05
1.44951e-06
1.55232e-05
1.7597e-06
1.40377e-05
1.29241e-06
1.31528e-05
3.42325e-07
1.28317e-05
-3.51574e-07
1.2841e-05
-4.69072e-07
1.29504e-05
-3.78017e-07
1.35035e-05
-8.33961e-07
1.4332e-05
-1.21932e-06
1.49202e-05
-9.1579e-07
1.52823e-05
-7.04054e-07
1.55559e-05
-5.50884e-07
1.57439e-05
-3.65956e-07
1.60238e-05
-2.17402e-07
1.63155e-05
-8.82217e-08
1.68265e-05
3.48573e-07
1.71238e-05
8.10654e-07
1.70278e-05
7.01444e-07
1.61025e-05
8.81289e-07
1.48333e-05
8.68842e-07
1.41357e-05
4.46896e-07
1.39832e-05
-3.06992e-07
1.41244e-05
-6.66001e-07
1.42715e-05
-4.73463e-07
1.46892e-05
-7.00171e-07
1.51891e-05
-7.81101e-07
1.55061e-05
-5.65392e-07
1.57468e-05
-5.07432e-07
1.59565e-05
-4.73695e-07
1.6132e-05
-4.0039e-07
1.63282e-05
-3.86348e-07
1.6526e-05
-3.64634e-07
1.66991e-05
-3.28457e-07
1.68433e-05
-2.87714e-07
1.69643e-05
-2.50263e-07
1.70697e-05
-2.19161e-07
1.71589e-05
-1.85097e-07
1.72378e-05
-1.59403e-07
1.73032e-05
-1.30053e-07
1.73468e-05
-8.52114e-08
1.7365e-05
-3.16356e-08
1.73603e-05
1.46273e-08
1.73339e-05
5.66379e-08
1.72881e-05
9.12555e-08
1.72195e-05
1.32618e-07
1.71228e-05
1.85643e-07
1.69991e-05
2.46602e-07
1.68544e-05
2.95636e-07
1.66914e-05
3.27235e-07
1.65065e-05
3.65316e-07
1.62928e-05
4.19375e-07
1.60507e-05
4.76986e-07
1.57893e-05
5.23699e-07
1.5509e-05
5.66081e-07
1.52042e-05
6.1125e-07
1.48697e-05
6.63052e-07
1.45069e-05
7.17541e-07
1.41192e-05
7.68381e-07
1.37103e-05
8.13773e-07
1.32813e-05
8.57491e-07
1.28296e-05
9.02937e-07
1.23529e-05
9.50837e-07
1.18458e-05
1.01043e-06
1.13093e-05
1.07175e-06
1.07512e-05
1.11265e-06
1.01775e-05
1.14332e-06
9.58223e-06
1.18635e-06
8.95879e-06
1.24656e-06
8.31468e-06
1.29851e-06
7.65507e-06
1.32354e-06
6.9863e-06
1.33493e-06
6.30845e-06
1.35298e-06
5.62213e-06
1.37272e-06
4.92857e-06
1.40082e-06
4.22534e-06
1.42796e-06
3.521e-06
1.42687e-06
2.82006e-06
1.40975e-06
2.13346e-06
1.37334e-06
1.46947e-06
1.32805e-06
8.24226e-07
1.29411e-06
1.97058e-07
1.25814e-06
-4.13785e-07
1.22396e-06
-1.01199e-06
1.19697e-06
-1.59165e-06
1.15463e-06
-2.14644e-06
1.09793e-06
-2.67229e-06
1.04098e-06
-3.17271e-06
9.97362e-07
-3.65318e-06
9.64706e-07
-4.11763e-06
9.33211e-07
-4.5676e-06
9.00293e-07
-5.00158e-06
8.62029e-07
-5.41547e-06
8.19383e-07
-5.80763e-06
7.78187e-07
-6.1816e-06
7.43443e-07
-6.54086e-06
7.17355e-07
-6.88666e-06
6.94584e-07
-7.2187e-06
6.67055e-07
-7.535e-06
6.34507e-07
-7.83412e-06
5.95027e-07
-8.11743e-06
5.62117e-07
-8.38726e-06
5.36347e-07
-8.64507e-06
5.14169e-07
-8.88958e-06
4.89995e-07
-9.1195e-06
4.62654e-07
-9.33645e-06
4.33824e-07
-9.54238e-06
4.08756e-07
-9.73885e-06
3.89396e-07
-9.92516e-06
3.73271e-07
-1.00989e-05
3.52574e-07
-1.02589e-05
3.21095e-07
-1.04059e-05
2.91499e-07
-1.05427e-05
2.71425e-07
-1.06707e-05
2.5377e-07
-1.07904e-05
2.38789e-07
-1.09027e-05
2.27883e-07
-1.10064e-05
2.11828e-07
-1.11008e-05
1.90472e-07
-1.11837e-05
1.64114e-07
-1.12563e-05
1.42948e-07
-1.13212e-05
1.27524e-07
-1.13788e-05
1.13631e-07
-1.14293e-05
1.03183e-07
-1.14734e-05
9.2684e-08
-1.15114e-05
7.90513e-08
-1.15428e-05
6.24284e-08
-1.15653e-05
4.28312e-08
-1.15798e-05
2.67859e-08
-1.15881e-05
1.47981e-08
-1.15918e-05
7.38815e-09
-1.15918e-05
2.56198e-09
-1.15863e-05
-8.31299e-09
-1.1573e-05
-2.46071e-08
-1.15519e-05
-4.14122e-08
-1.15252e-05
-5.43098e-08
-1.14937e-05
-6.31993e-08
-1.14588e-05
-6.97704e-08
-1.1422e-05
-7.50753e-08
-1.13827e-05
-8.13911e-08
-1.13387e-05
-8.89507e-08
-1.12887e-05
-9.7715e-08
-1.12319e-05
-1.08546e-07
-1.11708e-05
-1.19216e-07
-1.11071e-05
-1.29154e-07
-1.10408e-05
-1.35594e-07
-1.0972e-05
-1.40247e-07
-1.09011e-05
-1.42753e-07
-1.08268e-05
-1.44594e-07
-1.07479e-05
-1.53033e-07
-1.06643e-05
-1.68156e-07
-1.05772e-05
-1.76213e-07
-1.0489e-05
-1.7855e-07
-1.03995e-05
-1.81301e-07
-1.0307e-05
-1.84171e-07
-1.02104e-05
-1.89479e-07
-1.01095e-05
-1.9873e-07
-1.00062e-05
-2.05976e-07
-9.90148e-06
-2.10861e-07
-9.79665e-06
-2.12472e-07
-9.69001e-06
-2.15154e-07
-9.57767e-06
-2.23388e-07
-9.46068e-06
-2.31294e-07
-9.34145e-06
-2.37287e-07
-9.22026e-06
-2.43943e-07
-9.09714e-06
-2.48072e-07
-8.97329e-06
-2.48159e-07
-8.8482e-06
-2.47979e-07
-8.7201e-06
-2.52957e-07
-8.58756e-06
-2.64748e-07
-8.45096e-06
-2.74303e-07
-8.31224e-06
-2.78453e-07
-8.1721e-06
-2.81797e-07
-8.03022e-06
-2.85727e-07
-7.88552e-06
-2.88986e-07
-7.73781e-06
-2.91231e-07
-7.58784e-06
-2.95799e-07
-7.43611e-06
-3.02908e-07
-7.28199e-06
-3.10042e-07
-7.12452e-06
-3.16404e-07
-6.96372e-06
-3.22345e-07
-6.7994e-06
-3.29068e-07
-6.63274e-06
-3.33871e-07
-6.46525e-06
-3.33885e-07
-6.29539e-06
-3.3616e-07
-6.12191e-06
-3.45448e-07
-5.94381e-06
-3.56541e-07
-5.76338e-06
-3.61423e-07
-5.58139e-06
-3.65271e-07
-5.39684e-06
-3.70746e-07
-5.20828e-06
-3.77539e-07
-5.01683e-06
-3.80637e-07
-4.82248e-06
-3.85461e-07
-4.62505e-06
-3.92811e-07
-4.42578e-06
-3.99194e-07
-4.22471e-06
-4.0433e-07
-4.0208e-06
-4.10092e-07
-3.81304e-06
-4.16146e-07
-3.60206e-06
-4.1954e-07
-3.38937e-06
-4.22662e-07
-3.1772e-06
-4.24277e-07
-2.96499e-06
-4.26768e-07
-2.75075e-06
-4.31332e-07
-2.53392e-06
-4.35091e-07
-2.31648e-06
-4.34105e-07
-2.10067e-06
-4.31197e-07
-1.88765e-06
-4.28003e-07
-1.6757e-06
-4.26845e-07
-1.46407e-06
-4.24695e-07
-1.25491e-06
-4.18509e-07
-1.05027e-06
-4.09965e-07
-8.50755e-07
-4.0108e-07
-6.55524e-07
-3.92767e-07
-4.64795e-07
-3.82797e-07
-2.7968e-07
-3.70308e-07
-1.01391e-07
-3.56256e-07
6.944e-08
-3.41851e-07
2.33814e-07
-3.28968e-07
3.92536e-07
-3.17066e-07
5.45305e-07
-3.04791e-07
6.91799e-07
-2.92197e-07
8.32017e-07
-2.79771e-07
9.66106e-07
-2.67712e-07
1.09454e-06
-2.56488e-07
1.21763e-06
-2.45792e-07
1.33562e-06
-2.35416e-07
1.44862e-06
-2.25414e-07
1.55678e-06
-2.15887e-07
1.66022e-06
-2.06686e-07
1.75907e-06
-1.97562e-07
1.85365e-06
-1.88907e-07
1.94426e-06
-1.80957e-07
2.03119e-06
-1.73688e-07
2.11452e-06
-1.66676e-07
2.19431e-06
-1.59689e-07
2.27066e-06
-1.52704e-07
2.34372e-06
-1.45915e-07
2.41363e-06
-1.39686e-07
2.48069e-06
-1.34154e-07
2.54531e-06
-1.29265e-07
2.60759e-06
-1.24455e-07
2.66748e-06
-1.19611e-07
2.72496e-06
-1.14823e-07
2.78006e-06
-1.10148e-07
2.8328e-06
-1.05589e-07
2.88328e-06
-1.01211e-07
2.93187e-06
-9.73799e-08
2.9788e-06
-9.39017e-08
3.02402e-06
-9.03735e-08
3.0675e-06
-8.68353e-08
3.10922e-06
-8.32815e-08
3.14917e-06
-7.97252e-08
3.18732e-06
-7.61485e-08
3.22373e-06
-7.26631e-08
3.25854e-06
-6.94746e-08
3.2918e-06
-6.63781e-08
3.32347e-06
-6.32388e-08
3.35356e-06
-6.00684e-08
3.38187e-06
-5.65988e-08
3.40849e-06
-5.32582e-08
3.43357e-06
-5.01398e-08
3.45713e-06
-4.70668e-08
3.47914e-06
-4.39382e-08
3.49955e-06
-4.07752e-08
3.51832e-06
-3.75897e-08
3.53542e-06
-3.42059e-08
3.55086e-06
-3.0659e-08
3.56471e-06
-2.72653e-08
3.57694e-06
-2.41313e-08
3.58764e-06
-2.13038e-08
3.59663e-06
-1.81161e-08
3.60362e-06
-1.42019e-08
3.6088e-06
-1.04389e-08
3.61257e-06
-7.51742e-09
3.61508e-06
-4.94094e-09
3.61621e-06
-2.21131e-09
3.6157e-06
9.77731e-10
3.61326e-06
4.58262e-09
3.60915e-06
7.77531e-09
3.60358e-06
1.10018e-08
3.59683e-06
1.40249e-08
3.58871e-06
1.67496e-08
3.57917e-06
1.90195e-08
3.56819e-06
2.15661e-08
3.55575e-06
2.44735e-08
3.54186e-06
2.73769e-08
3.52679e-06
2.99411e-08
3.51056e-06
3.24651e-08
3.49321e-06
3.46615e-08
3.47469e-06
3.66942e-08
3.45502e-06
3.90537e-08
3.43438e-06
4.13774e-08
3.41283e-06
4.33703e-08
3.39037e-06
4.49327e-08
3.36685e-06
4.67075e-08
3.34239e-06
4.85205e-08
3.31716e-06
5.00187e-08
3.29143e-06
5.11992e-08
3.26519e-06
5.28082e-08
3.23825e-06
5.44004e-08
3.21024e-06
5.5987e-08
3.18128e-06
5.7356e-08
3.15222e-06
5.74682e-08
3.12308e-06
5.77797e-08
3.09371e-06
5.81335e-08
3.06345e-06
6.06677e-08
3.03326e-06
6.16961e-08
3.00236e-06
6.25312e-08
2.9723e-06
6.02713e-08
2.94123e-06
6.2076e-08
2.90888e-06
6.39944e-08
2.87644e-06
6.50617e-08
2.84359e-06
6.56397e-08
2.81199e-06
6.247e-08
2.78049e-06
6.3128e-08
2.75335e-06
5.74307e-08
2.72528e-06
5.88939e-08
2.69195e-06
6.39081e-08
2.66023e-06
5.83522e-08
2.62346e-06
6.3378e-08
2.59127e-06
6.37698e-08
2.58345e-06
3.37142e-08
2.57526e-06
3.98717e-08
2.54679e-06
6.07435e-08
2.51927e-06
3.39215e-08
2.43663e-06
9.26954e-08
2.30864e-06
1.60429e-07
2.12029e-06
1.95432e-07
1.96098e-06
2.21351e-07
1.8674e-06
2.11462e-07
1.80731e-06
2.4991e-07
1.78209e-06
2.01496e-07
1.7316e-06
1.49595e-07
1.6871e-06
1.33771e-07
1.63255e-06
1.15377e-07
1.58701e-06
1.00447e-07
1.54021e-06
9.6106e-08
1.50007e-06
8.87072e-08
1.46219e-06
8.26481e-08
1.4453e-06
5.47912e-08
1.41055e-06
6.72104e-08
1.34411e-06
9.50796e-08
1.30243e-06
4.19821e-08
1.23389e-06
9.30678e-08
1.16083e-06
1.2598e-07
1.05446e-06
1.16223e-07
1.05037e-06
5.8854e-08
1.11607e-06
2.53252e-08
1.15343e-06
8.72978e-08
1.1585e-06
2.78965e-08
1.11304e-06
-1.05083e-08
1.09001e-06
1.3441e-08
1.05743e-06
2.2804e-08
1.03342e-06
3.57896e-08
1.01427e-06
3.17035e-08
9.97e-07
4.16762e-08
9.80779e-07
3.97643e-08
9.68163e-07
4.80965e-08
9.5332e-07
3.8435e-08
9.33864e-07
4.51381e-08
8.71838e-07
8.43579e-08
8.20916e-07
7.59932e-08
7.49852e-07
9.06438e-08
6.5071e-07
1.54715e-07
6.19524e-07
7.47726e-08
5.43749e-07
1.55404e-07
7.56054e-07
-1.12601e-07
1.16128e-06
-3.4669e-07
1.641e-06
-2.91921e-07
2.03163e-06
-3.63215e-07
2.30531e-06
-5.10066e-07
2.44689e-06
-5.61239e-07
2.53162e-06
-5.09494e-07
2.57839e-06
-4.72691e-07
2.65475e-06
-4.26323e-07
2.75073e-06
-3.53944e-07
2.83952e-06
-2.56583e-07
2.90768e-06
-1.89471e-07
2.96241e-06
-1.53387e-07
3.00526e-06
-1.30273e-07
3.04446e-06
-9.90777e-08
3.08232e-06
-7.6664e-08
3.11678e-06
-6.80549e-08
3.14901e-06
-6.22988e-08
3.17822e-06
-6.43134e-08
3.19965e-06
-5.46817e-08
3.21761e-06
-3.9656e-08
3.23652e-06
-3.49427e-08
3.25691e-06
-3.95282e-08
3.27944e-06
-4.3887e-08
3.30082e-06
-4.2545e-08
3.32443e-06
-4.4463e-08
3.35068e-06
-5.37354e-08
3.37785e-06
-6.04379e-08
3.40642e-06
-5.99402e-08
3.4369e-06
-5.60324e-08
3.4697e-06
-5.86046e-08
3.50493e-06
-6.41091e-08
3.54206e-06
-7.27843e-08
3.58372e-06
-8.17951e-08
3.63012e-06
-8.98609e-08
3.67908e-06
-9.75471e-08
3.72955e-06
-1.00772e-07
3.78097e-06
-9.98343e-08
3.83486e-06
-1.00595e-07
3.89382e-06
-1.1067e-07
3.9577e-06
-1.25536e-07
4.02855e-06
-1.43562e-07
4.10363e-06
-1.56308e-07
4.18213e-06
-1.6319e-07
4.26502e-06
-1.6967e-07
4.35269e-06
-1.75288e-07
4.44591e-06
-1.85202e-07
4.54321e-06
-1.93918e-07
4.64344e-06
-1.99353e-07
4.74598e-06
-2.06188e-07
4.85142e-06
-2.14929e-07
4.95961e-06
-2.22334e-07
5.07044e-06
-2.26645e-07
5.18386e-06
-2.28949e-07
5.30034e-06
-2.31037e-07
5.41991e-06
-2.34088e-07
5.54191e-06
-2.38499e-07
5.66631e-06
-2.44144e-07
5.79247e-06
-2.50123e-07
5.9207e-06
-2.56046e-07
6.05156e-06
-2.6139e-07
6.18461e-06
-2.65623e-07
6.31936e-06
-2.68795e-07
6.4554e-06
-2.71482e-07
6.59303e-06
-2.74496e-07
6.73241e-06
-2.78219e-07
6.87336e-06
-2.81806e-07
7.01514e-06
-2.84037e-07
7.15743e-06
-2.85347e-07
7.30015e-06
-2.8545e-07
7.44416e-06
-2.87527e-07
7.59012e-06
-2.89785e-07
7.73663e-06
-2.92779e-07
7.8831e-06
-2.93195e-07
8.02961e-06
-2.93015e-07
8.17619e-06
-2.93696e-07
8.3243e-06
-2.95039e-07
8.47221e-06
-2.95216e-07
8.62046e-06
-2.96339e-07
8.76954e-06
-2.98927e-07
8.91812e-06
-3.05662e-07
9.06685e-06
-3.10872e-07
9.21222e-06
-3.18426e-07
9.35758e-06
-3.21183e-07
-3.2782e-07
-1.69387e-05
1.2231e-05
-1.71362e-05
4.45157e-06
-1.69412e-05
2.32375e-06
-1.53051e-05
-4.89395e-06
-1.30587e-05
-1.10747e-05
-1.06692e-05
-1.30869e-05
-7.6597e-06
-1.33622e-05
-4.75026e-06
-1.29921e-05
-2.60281e-06
-1.19613e-05
-1.69825e-06
-9.56687e-06
-1.84129e-06
-6.03359e-06
-1.65579e-06
-4.75248e-06
-9.98901e-07
-4.87099e-06
2.00863e-07
-5.95647e-06
1.44148e-06
-7.05827e-06
2.52847e-06
-7.4214e-06
2.86985e-06
-6.86085e-06
2.43806e-06
-5.5412e-06
1.96219e-06
-3.73858e-06
1.46832e-06
-8.86201e-07
6.91843e-07
2.15874e-06
-2.36098e-07
4.24053e-06
-2.71626e-07
5.27273e-06
8.86917e-07
5.62037e-06
2.98447e-06
4.59258e-06
5.37952e-06
1.85615e-06
7.28076e-06
-1.21657e-06
8.22349e-06
-2.76616e-06
8.28421e-06
-2.74904e-06
7.71255e-06
-2.12466e-06
6.68209e-06
-5.75164e-07
5.24326e-06
2.10388e-06
3.55052e-06
4.76187e-06
1.31911e-06
6.99814e-06
-9.3574e-07
8.53209e-06
-2.1781e-06
9.26736e-06
-3.11596e-06
9.0305e-06
-4.74221e-06
8.28435e-06
-6.20788e-06
7.41446e-06
-6.66875e-06
4.64352e-06
-6.83349e-06
1.76331e-06
-7.03016e-06
7.93774e-07
-7.2226e-06
8.446e-07
-7.38078e-06
1.81019e-06
-7.35174e-06
1.90122e-06
-7.26806e-06
8.5131e-07
-6.96754e-06
-1.05599e-06
-6.60102e-06
-1.56678e-06
-6.18717e-06
-1.31526e-06
-5.85864e-06
-1.18826e-08
-5.68306e-06
3.30583e-07
-5.61115e-06
-1.04769e-07
-5.42195e-06
-1.58146e-06
-4.89782e-06
-2.9852e-06
-4.24421e-06
-3.61358e-06
-3.58822e-06
-3.75873e-06
-3.0354e-06
-3.50976e-06
-2.64001e-06
-2.73189e-06
-2.06232e-06
-2.31984e-06
-8.72334e-07
-2.43271e-06
8.56204e-07
-2.70018e-06
2.86235e-06
-2.95053e-06
4.87191e-06
-2.76503e-06
6.16633e-06
-1.59293e-06
6.56661e-06
-4.34616e-07
6.56681e-06
-1.12833e-07
6.36786e-06
-2.88434e-07
6.11977e-06
-1.11105e-06
6.37442e-06
-2.83086e-06
7.16979e-06
-4.1544e-06
8.12071e-06
-4.63444e-06
9.20891e-06
-4.53049e-06
1.0219e-05
-3.6978e-06
1.09627e-05
-2.90542e-06
1.16333e-05
-2.71983e-06
1.23183e-05
-3.00359e-06
1.31568e-05
-3.30409e-06
1.49447e-05
-3.52444e-06
1.79337e-05
-3.20818e-06
2.07135e-05