/*--------------------------------*- C++ -*----------------------------------*\
| =========                 |                                                 |
| \\      /  F ield         | OpenFOAM: The Open Source CFD Toolbox           |
|  \\    /   O peration     | Version:  v2006                                 |
|   \\  /    A nd           | Website:  www.openfoam.com                      |
|    \\/     M anipulation  |                                                 |
\*---------------------------------------------------------------------------*/
FoamFile
{
    version     2.0;
    format      ascii;
    class       volVectorField;
    location    "9.5";
    object      U;
}
// * * * * * * * * * * * * * * * * * * * * * * * * * * * * * * * * * * * * * //

dimensions      [0 1 -1 0 0 0 0];


internalField   nonuniform List<vector> 
33000
(
(-0.085436 0 0.0271694)
(-0.0656485 0 0.00333934)
(-0.0783352 0 -0.00260602)
(-0.0779826 0 -0.0112147)
(-0.0639249 0 -0.0174745)
(-0.0509857 0 -0.0143862)
(-0.0339481 0 -0.0165885)
(-0.0225397 0 -0.0151446)
(-0.00590498 0 -0.0152967)
(0.00753954 0 -0.0153557)
(0.0208167 0 -0.0120796)
(0.0296186 0 -0.00960268)
(0.0370222 0 -0.00772805)
(0.0433176 0 -0.00654627)
(0.0498736 0 -0.00546591)
(0.0566986 0 -0.00369915)
(0.0633374 0 -0.00412348)
(0.0710945 0 -0.00464441)
(0.0788035 0 -0.0022125)
(0.0828466 0 0.00199693)
(0.0828132 0 0.00482784)
(0.0803987 0 0.00678946)
(0.0762081 0 0.0080054)
(0.0691475 0 0.0115539)
(0.0560627 0 0.0144535)
(0.0450235 0 0.00921708)
(0.0391169 0 0.00255614)
(0.0379875 0 -0.000518109)
(0.0402377 0 -0.00366862)
(0.045005 0 -0.00425093)
(0.0492054 0 -0.00122741)
(0.0504269 0 0.00160984)
(0.0490139 0 0.00375363)
(0.0452308 0 0.00452167)
(0.0409818 0 0.00833312)
(0.0312662 0 0.0162747)
(0.0161424 0 0.0143441)
(0.00592886 0 0.00836857)
(-0.00205329 0 0.00578627)
(-0.00963417 0 0.00389285)
(-0.0129002 0 0.000459566)
(-0.0131145 0 -0.000744488)
(-0.0129498 0 -0.000268109)
(-0.0138575 0 0.00250301)
(-0.0178052 0 0.00375489)
(-0.0204998 0 0.000817579)
(-0.0199085 0 -0.00168122)
(-0.01784 0 -0.00205126)
(-0.0156272 0 -0.00090126)
(-0.0159418 0 0.00204314)
(-0.0176676 0 0.00212245)
(-0.0187262 0 -0.000154682)
(-0.0172178 0 -0.00218347)
(-0.0141824 0 -0.00272381)
(-0.0103408 0 -0.0030454)
(-0.00621623 0 -0.00340842)
(-0.00179717 0 -0.00373667)
(0.00239618 0 -0.00375756)
(0.00609988 0 -0.00358424)
(0.00906446 0 -0.00230328)
(0.00997495 0 -6.33383e-05)
(0.00941805 0 0.00205797)
(0.00845291 0 0.00217998)
(0.00737768 0 0.00110782)
(0.00720193 0 3.11144e-05)
(0.00741983 0 -0.000747921)
(0.00828869 0 -0.00132088)
(0.0100785 0 -0.0025195)
(0.0134064 0 -0.00390474)
(0.0179737 0 -0.00483663)
(0.0232036 0 -0.00532786)
(0.028959 0 -0.00523797)
(0.0336145 0 -0.00527)
(0.038114 0 -0.00504556)
(0.041779 0 -0.00481782)
(0.0440752 0 -0.00429592)
(0.0509331 0 -0.00161603)
(0.0500355 0 0.00425656)
(0.0424516 0 0.00461964)
(0.0432984 0 0.00310753)
(0.0387688 0 0.00303763)
(0.0380553 0 -0.000509162)
(0.0369908 0 0.000896165)
(0.0359457 0 -0.000281627)
(0.0365232 0 5.5326e-05)
(0.036665 0 -0.000205373)
(0.0360164 0 -0.00026048)
(0.0359851 0 -0.000757284)
(0.0367727 0 -0.00157504)
(0.0373258 0 -0.000971039)
(0.0380966 0 -0.00132272)
(0.0389923 0 -0.000831297)
(0.0398305 0 -0.000607743)
(0.040074 0 -0.000141153)
(0.0406922 0 0.000208423)
(0.0403208 0 6.35799e-05)
(0.0412881 0 0.000424885)
(0.0397908 0 0.000501479)
(0.0412498 0 0.00407898)
(0.0339683 0 0.00493685)
(0.0313599 0 0.00279831)
(0.0275495 0 -0.00224454)
(0.0285382 0 -0.00510702)
(0.0288746 0 -0.00290806)
(0.0296061 0 -0.000769964)
(0.0314829 0 0.000644979)
(0.0329738 0 0.00033811)
(0.0337859 0 0.000158135)
(0.0343374 0 -0.000812508)
(0.0352158 0 -0.00143703)
(0.0362227 0 -0.00129427)
(0.0369108 0 -0.000959183)
(0.0379041 0 -0.000421168)
(0.0382646 0 -8.03112e-05)
(0.0388741 0 0.000670802)
(0.0377121 0 0.00104424)
(0.0384428 0 0.00329656)
(0.0330436 0 0.00334172)
(0.0323598 0 0.00107983)
(0.0308433 0 -0.00231662)
(0.032213 0 -0.0034992)
(0.0328329 0 -0.00176659)
(0.0335942 0 -0.000582294)
(0.0350628 0 3.59594e-06)
(0.0361442 0 -1.55833e-05)
(0.0367829 0 -0.000521842)
(0.0375313 0 -0.000851944)
(0.0381787 0 -0.000762852)
(0.0388011 0 -0.000581149)
(0.0394968 0 -0.000441989)
(0.0401161 0 -0.000356212)
(0.0406278 0 -0.000346272)
(0.0410675 0 -0.000347447)
(0.0414672 0 -0.000338626)
(0.0418435 0 -0.000302024)
(0.042185 0 -0.000244242)
(0.0424895 0 -0.000199518)
(0.0427522 0 -0.000162743)
(0.0429698 0 -0.000143131)
(0.0431542 0 -0.000117566)
(0.0432908 0 -7.75571e-05)
(0.0433588 0 -1.82291e-05)
(0.0433605 0 2.66221e-05)
(0.0433066 0 6.47736e-05)
(0.0432108 0 8.86836e-05)
(0.0430762 0 0.000123537)
(0.0428902 0 0.000168716)
(0.0426281 0 0.000242716)
(0.042276 0 0.000301087)
(0.0418781 0 0.000323753)
(0.0414524 0 0.000350693)
(0.0409749 0 0.000397)
(0.0404248 0 0.000458311)
(0.0398025 0 0.00051944)
(0.0391162 0 0.000566617)
(0.0383762 0 0.000603227)
(0.037587 0 0.000639892)
(0.0367356 0 0.000689883)
(0.0358172 0 0.000746278)
(0.0348359 0 0.000801075)
(0.033796 0 0.000849694)
(0.032697 0 0.000892564)
(0.0315431 0 0.000935699)
(0.0303283 0 0.000992225)
(0.029027 0 0.00105341)
(0.027657 0 0.00109043)
(0.026255 0 0.0011216)
(0.0248097 0 0.00116152)
(0.0232991 0 0.00122579)
(0.0216934 0 0.0012949)
(0.0200305 0 0.00131007)
(0.0183732 0 0.00130798)
(0.0166982 0 0.00132418)
(0.0149982 0 0.00134909)
(0.0132644 0 0.00140336)
(0.0114622 0 0.0014452)
(0.0096422 0 0.00143756)
(0.00784916 0 0.00139758)
(0.0060987 0 0.00134884)
(0.00441558 0 0.00130795)
(0.00277786 0 0.00128354)
(0.00117117 0 0.00124887)
(-0.000379025 0 0.00121047)
(-0.00189544 0 0.00117733)
(-0.0033711 0 0.00112426)
(-0.00476882 0 0.00105858)
(-0.00608604 0 0.00100607)
(-0.00734378 0 0.000976697)
(-0.00857006 0 0.000956923)
(-0.00976309 0 0.000925249)
(-0.0109131 0 0.000884705)
(-0.0120129 0 0.000835333)
(-0.0130525 0 0.000790485)
(-0.0140396 0 0.000754984)
(-0.0149818 0 0.000722975)
(-0.0158867 0 0.00070254)
(-0.0167721 0 0.000687411)
(-0.0176286 0 0.000661016)
(-0.0184481 0 0.000627895)
(-0.0192168 0 0.000580403)
(-0.0199299 0 0.000544506)
(-0.02061 0 0.000520548)
(-0.0212632 0 0.000501662)
(-0.0218913 0 0.000482774)
(-0.0224909 0 0.000459729)
(-0.0230537 0 0.00042665)
(-0.0235761 0 0.00039642)
(-0.0240679 0 0.000376546)
(-0.0245413 0 0.000367244)
(-0.0250032 0 0.000355334)
(-0.0254327 0 0.00031698)
(-0.02581 0 0.000281651)
(-0.0261557 0 0.000262375)
(-0.0264819 0 0.000245265)
(-0.0267845 0 0.000233569)
(-0.0270775 0 0.000229844)
(-0.02736 0 0.000215882)
(-0.0276175 0 0.000189657)
(-0.0278388 0 0.000157265)
(-0.0280247 0 0.000136372)
(-0.0281901 0 0.000121223)
(-0.0283372 0 0.000108906)
(-0.0284714 0 0.000104776)
(-0.0285998 0 9.87933e-05)
(-0.0287137 0 8.31469e-05)
(-0.0288048 0 5.97754e-05)
(-0.028868 0 3.80917e-05)
(-0.028907 0 2.26217e-05)
(-0.0289293 0 1.11615e-05)
(-0.02894 0 7.09092e-06)
(-0.0289487 0 7.23431e-06)
(-0.0289521 0 -3.04047e-06)
(-0.0289353 0 -2.10467e-05)
(-0.0288955 0 -4.01482e-05)
(-0.028834 0 -5.47642e-05)
(-0.0287585 0 -6.19591e-05)
(-0.0286753 0 -6.76565e-05)
(-0.0285843 0 -7.52825e-05)
(-0.028484 0 -8.50142e-05)
(-0.0283749 0 -9.03863e-05)
(-0.0282595 0 -9.34869e-05)
(-0.0281367 0 -9.76115e-05)
(-0.0280013 0 -0.000111205)
(-0.0278462 0 -0.000130079)
(-0.0276755 0 -0.000138289)
(-0.0274994 0 -0.000141837)
(-0.0273188 0 -0.000142032)
(-0.0271406 0 -0.000135198)
(-0.0269669 0 -0.000141954)
(-0.0267685 0 -0.000167926)
(-0.0265463 0 -0.000176636)
(-0.0263229 0 -0.000178499)
(-0.026095 0 -0.000181546)
(-0.0258649 0 -0.000179243)
(-0.0256371 0 -0.000179962)
(-0.0254003 0 -0.000189638)
(-0.0251489 0 -0.000201347)
(-0.0248875 0 -0.000209653)
(-0.024619 0 -0.00021339)
(-0.0243497 0 -0.000214803)
(-0.0240767 0 -0.00021679)
(-0.0237949 0 -0.000221935)
(-0.0235059 0 -0.000230542)
(-0.0232047 0 -0.000242163)
(-0.0228931 0 -0.000246972)
(-0.0225805 0 -0.000245221)
(-0.0222719 0 -0.000239934)
(-0.0219665 0 -0.000242152)
(-0.0216468 0 -0.000259612)
(-0.0213066 0 -0.000271427)
(-0.0209589 0 -0.000275305)
(-0.0206081 0 -0.000279349)
(-0.020251 0 -0.000283647)
(-0.0198894 0 -0.000282838)
(-0.0195301 0 -0.000278551)
(-0.0191717 0 -0.000283508)
(-0.0188009 0 -0.000297662)
(-0.0184161 0 -0.000308033)
(-0.0180217 0 -0.000312697)
(-0.0176216 0 -0.000317499)
(-0.0172142 0 -0.000324091)
(-0.0167979 0 -0.000329166)
(-0.0163787 0 -0.000326272)
(-0.0159659 0 -0.000324026)
(-0.0155471 0 -0.000337179)
(-0.015106 0 -0.000351221)
(-0.0146558 0 -0.000356123)
(-0.0142008 0 -0.000360609)
(-0.01374 0 -0.000366555)
(-0.0132697 0 -0.000371657)
(-0.0127959 0 -0.000370312)
(-0.0123235 0 -0.000373085)
(-0.0118406 0 -0.000382399)
(-0.0113467 0 -0.000393373)
(-0.0108413 0 -0.000400785)
(-0.0103307 0 -0.000406751)
(-0.00981052 0 -0.000409931)
(-0.00928945 0 -0.000407268)
(-0.00876768 0 -0.000409875)
(-0.00824007 0 -0.000417248)
(-0.00770718 0 -0.000423935)
(-0.00716775 0 -0.000428838)
(-0.00662166 0 -0.000429921)
(-0.00607703 0 -0.000424896)
(-0.00553813 0 -0.00042215)
(-0.00500038 0 -0.00042317)
(-0.00446306 0 -0.000424487)
(-0.0039261 0 -0.00041985)
(-0.00339776 0 -0.000411475)
(-0.00287941 0 -0.000403858)
(-0.00237117 0 -0.000397585)
(-0.00187168 0 -0.000390206)
(-0.00138361 0 -0.000378803)
(-0.000911518 0 -0.000364285)
(-0.000457647 0 -0.000349676)
(-2.15909e-05 0 -0.000336156)
(0.000397604 0 -0.000323716)
(0.000801346 0 -0.000311144)
(0.00118934 0 -0.000298398)
(0.00156146 0 -0.000285893)
(0.00191796 0 -0.000273859)
(0.00225932 0 -0.00026231)
(0.00258625 0 -0.00025145)
(0.00289974 0 -0.000240885)
(0.00319987 0 -0.000230333)
(0.00348701 0 -0.00022042)
(0.00376199 0 -0.000211369)
(0.00402571 0 -0.000202788)
(0.00427821 0 -0.000193874)
(0.0045193 0 -0.000184958)
(0.00474984 0 -0.000177054)
(0.00497098 0 -0.000170102)
(0.00518354 0 -0.000163632)
(0.00538758 0 -0.000156879)
(0.00558287 0 -0.000149814)
(0.00576915 0 -0.000142895)
(0.00594703 0 -0.000136874)
(0.00611782 0 -0.000131673)
(0.00628238 0 -0.000126827)
(0.00644085 0 -0.000121882)
(0.00659307 0 -0.000117006)
(0.0067393 0 -0.00011235)
(0.00687968 0 -0.000107925)
(0.00701449 0 -0.000103735)
(0.00714387 0 -9.96737e-05)
(0.00726814 0 -9.58947e-05)
(0.00738786 0 -9.22599e-05)
(0.007503 0 -8.86175e-05)
(0.00761365 0 -8.50311e-05)
(0.00771982 0 -8.14717e-05)
(0.00782158 0 -7.79604e-05)
(0.0079189 0 -7.44179e-05)
(0.00801174 0 -7.10083e-05)
(0.00810037 0 -6.78774e-05)
(0.00818524 0 -6.49032e-05)
(0.00826614 0 -6.18674e-05)
(0.0083432 0 -5.8808e-05)
(0.00841618 0 -5.55106e-05)
(0.00848481 0 -5.23262e-05)
(0.00854953 0 -4.92171e-05)
(0.00861029 0 -4.61377e-05)
(0.00866723 0 -4.29904e-05)
(0.00872014 0 -3.99449e-05)
(0.00876929 0 -3.69247e-05)
(0.00881444 0 -3.36178e-05)
(0.00885502 0 -2.97661e-05)
(0.00889081 0 -2.594e-05)
(0.00892237 0 -2.28179e-05)
(0.00895057 0 -2.0424e-05)
(0.00897562 0 -1.78068e-05)
(0.00899639 0 -1.41825e-05)
(0.00901189 0 -1.01978e-05)
(0.00902297 0 -7.01051e-06)
(0.00903085 0 -4.47385e-06)
(0.00903534 0 -1.78277e-06)
(0.0090364 0 1.16924e-06)
(0.00903306 0 4.58243e-06)
(0.00902578 0 7.52725e-06)
(0.00901473 0 1.16384e-05)
(0.00899875 0 1.57083e-05)
(0.00897843 0 1.84773e-05)
(0.0089557 0 1.90449e-05)
(0.00893107 0 2.151e-05)
(0.00890279 0 2.385e-05)
(0.00887089 0 2.76044e-05)
(0.00883539 0 2.97987e-05)
(0.00879648 0 3.33426e-05)
(0.00875419 0 3.42526e-05)
(0.00870993 0 3.66368e-05)
(0.00866325 0 3.78913e-05)
(0.008613 0 4.18885e-05)
(0.00855956 0 4.27807e-05)
(0.0085039 0 4.4615e-05)
(0.00844734 0 4.437e-05)
(0.0083881 0 4.68912e-05)
(0.00832744 0 4.70263e-05)
(0.00826448 0 4.92032e-05)
(0.00820052 0 5.08685e-05)
(0.00813191 0 5.28619e-05)
(0.00806362 0 5.25121e-05)
(0.00799197 0 5.24438e-05)
(0.0079219 0 5.30238e-05)
(0.00784959 0 5.16146e-05)
(0.0077789 0 5.38028e-05)
(0.00770531 0 5.31582e-05)
(0.00762694 0 6.06709e-05)
(0.00754754 0 5.20163e-05)
(0.00746887 0 5.76831e-05)
(0.00739609 0 4.92338e-05)
(0.00731376 0 6.61965e-05)
(0.00723778 0 5.73495e-05)
(0.00715016 0 7.51939e-05)
(0.00707414 0 5.55874e-05)
(0.00699478 0 6.69547e-05)
(0.00691656 0 5.03702e-05)
(0.0068422 0 6.65037e-05)
(0.00676305 0 6.56759e-05)
(0.00668847 0 7.75739e-05)
(0.00663045 0 6.06625e-05)
(0.00655425 0 5.27718e-05)
(0.00647408 0 7.59903e-06)
(0.00642256 0 3.57287e-05)
(0.00631787 0 9.60979e-05)
(0.00625944 0 0.000134705)
(0.00628719 0 0.000126579)
(0.00620814 0 3.27559e-05)
(0.00613014 0 -0.000229596)
(0.00616027 0 -0.000186138)
(0.00583942 0 0.000127247)
(0.00554546 0 0.000428336)
(0.0049032 0 0.000597999)
(0.00468426 0 0.000279987)
(0.00437854 0 0.000254727)
(0.00425308 0 0.000150918)
(0.00406734 0 0.000115487)
(0.00398155 0 0.000114422)
(0.00382002 0 5.79041e-05)
(0.00373834 0 0.000125105)
(0.00359705 0 6.12474e-05)
(0.00354758 0 0.000128313)
(0.00343563 0 6.12119e-05)
(0.00340385 0 8.09055e-05)
(0.00343398 0 -2.22565e-05)
(0.00328144 0 -4.23273e-06)
(0.00316963 0 -0.000198559)
(0.00323091 0 9.57524e-05)
(0.00289835 0 0.000358875)
(0.00277127 0 0.000349151)
(0.00227687 0 9.66927e-05)
(0.00261185 0 -0.000237186)
(0.00254849 0 -2.41168e-05)
(0.0026662 0 -8.40842e-05)
(0.00259058 0 4.894e-05)
(0.00261461 0 -1.98488e-05)
(0.00251945 0 5.67247e-05)
(0.00250094 0 -2.43981e-05)
(0.0023929 0 3.95763e-05)
(0.00233103 0 -8.64311e-06)
(0.00226902 0 8.57775e-05)
(0.00220923 0 7.54731e-05)
(0.00214504 0 9.88237e-05)
(0.00210423 0 -1.48662e-05)
(0.0020178 0 -1.53418e-05)
(0.00184859 0 -6.1692e-05)
(0.00180025 0 6.13238e-05)
(0.00144242 0 0.000261509)
(0.00128947 0 0.000298904)
(0.00123505 0 0.000778948)
(0.000175715 0 0.000818723)
(0.00126244 0 -0.000135571)
(0.00156467 0 -0.00100123)
(0.00285313 0 -0.0010466)
(0.0040344 0 -0.00114844)
(0.00488535 0 -0.000868011)
(0.00576085 0 -0.000584302)
(0.00622434 0 -0.000360133)
(0.00658838 0 -0.000273586)
(0.00685118 0 -0.000229554)
(0.00709078 0 -0.000213188)
(0.00727569 0 -0.000138978)
(0.00739075 0 -7.91303e-05)
(0.00748086 0 -6.50622e-05)
(0.00755883 0 -5.60661e-05)
(0.00763895 0 -7.04928e-05)
(0.00773019 0 -7.28726e-05)
(0.00779969 0 -4.35217e-05)
(0.00784137 0 -2.63833e-05)
(0.00788248 0 -3.42198e-05)
(0.00793881 0 -3.8692e-05)
(0.00799347 0 -3.95614e-05)
(0.00804092 0 -3.69926e-05)
(0.00809962 0 -5.36984e-05)
(0.00817877 0 -7.025e-05)
(0.00826321 0 -6.35297e-05)
(0.0083335 0 -4.55267e-05)
(0.00839525 0 -4.46428e-05)
(0.00846153 0 -5.25979e-05)
(0.00854259 0 -7.06288e-05)
(0.00863917 0 -7.87092e-05)
(0.00874205 0 -8.30678e-05)
(0.00885611 0 -9.58125e-05)
(0.00898389 0 -9.99513e-05)
(0.0091085 0 -9.44264e-05)
(0.00922404 0 -8.90546e-05)
(0.00934371 0 -9.70187e-05)
(0.00948444 0 -0.000119076)
(0.00965357 0 -0.00014381)
(0.00984824 0 -0.000163153)
(0.0100561 0 -0.000169066)
(0.0102709 0 -0.000171235)
(0.0104887 0 -0.000169019)
(0.010711 0 -0.00017719)
(0.0109471 0 -0.00018643)
(0.0111931 0 -0.00019149)
(0.0114443 0 -0.000203348)
(0.0117088 0 -0.000217608)
(0.0119904 0 -0.000227338)
(0.0122792 0 -0.000229337)
(0.0125683 0 -0.00022647)
(0.0128556 0 -0.000221517)
(0.0131405 0 -0.000218949)
(0.0134282 0 -0.000222495)
(0.0137228 0 -0.000229736)
(0.0140264 0 -0.0002399)
(0.0143414 0 -0.00024872)
(0.0146645 0 -0.000254607)
(0.0149928 0 -0.000257976)
(0.0153263 0 -0.000260419)
(0.015663 0 -0.000263133)
(0.0160029 0 -0.000265819)
(0.0163469 0 -0.000269514)
(0.0166961 0 -0.000273263)
(0.01705 0 -0.000276595)
(0.0174084 0 -0.000278629)
(0.0177622 0 -0.000277792)
(0.0181256 0 -0.000279007)
(0.0184707 0 -0.000279148)
(0.0188559 0 -0.000285221)
(0.0191928 0 -0.000285237)
(0.0196029 0 -0.000284668)
(0.0199081 0 -0.000285303)
(0.0203262 0 -0.000283833)
(0.0207285 0 -0.000285093)
(0.0209867 0 -0.000288249)
(0.0213839 0 -0.000294219)
(0.0219342 0 -0.000317561)
(0.0223284 0 -0.000334939)
(0.0212431 0 -0.000377255)
(0.027482 0 -0.000386514)
(0.0135558 0 -0.000434177)
(-0.064681 0 0.0468917)
(-0.047284 0 0.0178078)
(-0.0533582 0 0.0124638)
(-0.0561923 0 -0.00646249)
(-0.0448635 0 -0.0272782)
(-0.0382222 0 -0.0350681)
(-0.0227997 0 -0.0321611)
(-0.0161373 0 -0.0323508)
(-0.00323702 0 -0.0330299)
(0.00464485 0 -0.0305578)
(0.01135 0 -0.0234616)
(0.0150584 0 -0.0170608)
(0.0180965 0 -0.0146205)
(0.0226428 0 -0.0144423)
(0.0288293 0 -0.0173202)
(0.0374104 0 -0.0184848)
(0.0463443 0 -0.0209891)
(0.0539634 0 -0.0214535)
(0.0600491 0 -0.0160382)
(0.0653943 0 -0.00708356)
(0.0665393 0 -0.001246)
(0.0616929 0 0.0019615)
(0.0555511 0 0.0100629)
(0.0485396 0 0.0188892)
(0.0405985 0 0.0218005)
(0.035538 0 0.0185997)
(0.0354731 0 0.00957516)
(0.0394716 0 -0.00123536)
(0.0431453 0 -0.00744206)
(0.0463869 0 -0.00957306)
(0.0482134 0 -0.00654024)
(0.0497734 0 -0.00123247)
(0.046615 0 0.00508115)
(0.039628 0 0.00922863)
(0.0313658 0 0.0131356)
(0.0227657 0 0.0221775)
(0.013311 0 0.0254642)
(0.00674332 0 0.0211427)
(-0.000644894 0 0.0190005)
(-0.00773097 0 0.0137778)
(-0.0105654 0 0.00505906)
(-0.0122314 0 0.00109296)
(-0.0131586 0 0.00121713)
(-0.0149128 0 0.00509334)
(-0.0166303 0 0.00662855)
(-0.0180052 0 0.00291957)
(-0.018623 0 -0.00281171)
(-0.0174983 0 -0.0041442)
(-0.0162557 0 -0.0028187)
(-0.0157835 0 0.00170451)
(-0.015331 0 0.00204451)
(-0.015513 0 -0.000318345)
(-0.0153214 0 -0.00520731)
(-0.0132178 0 -0.00821022)
(-0.0100309 0 -0.00980578)
(-0.00646575 0 -0.0103432)
(-0.00314236 0 -0.0101967)
(-0.000502844 0 -0.00893036)
(0.000682286 0 -0.00675426)
(0.00180571 0 -0.00338796)
(0.00342629 0 -0.0010374)
(0.00603395 0 0.000250158)
(0.0092514 0 0.000938318)
(0.0116662 0 0.000824192)
(0.0123333 0 4.7992e-05)
(0.0119227 0 -0.000966261)
(0.0116414 0 -0.00284264)
(0.0118728 0 -0.00559347)
(0.0135409 0 -0.00891741)
(0.016724 0 -0.0113682)
(0.0202051 0 -0.0125884)
(0.023971 0 -0.011763)
(0.0268125 0 -0.00973359)
(0.0284044 0 -0.00768394)
(0.0299531 0 -0.00636694)
(0.0315002 0 -0.00545043)
(0.0360426 0 -0.00467569)
(0.0382398 0 0.00118754)
(0.0472047 0 0.00823071)
(0.0530854 0 0.00426686)
(0.0531828 0 0.00445983)
(0.0466857 0 0.00333612)
(0.0477758 0 0.00194464)
(0.0439335 0 0.00100685)
(0.0419491 0 -0.00129518)
(0.0406276 0 0.00150828)
(0.0387994 0 0.00117185)
(0.0375654 0 -0.000301381)
(0.0384283 0 -0.000647698)
(0.0392836 0 -0.00115418)
(0.0389272 0 -0.00137324)
(0.0398929 0 -0.00187552)
(0.0403567 0 -0.00109311)
(0.0407737 0 -0.00122094)
(0.0412721 0 -0.000699573)
(0.0421398 0 -0.000815314)
(0.0421669 0 -0.000223041)
(0.0432723 0 0.000545095)
(0.0428013 0 0.00404313)
(0.0463133 0 0.00976187)
(0.0451666 0 0.00854232)
(0.0477807 0 0.00672559)
(0.0399339 0 0.00350737)
(0.0371333 0 0.00129668)
(0.0333669 0 -0.00386108)
(0.0322712 0 -0.00634415)
(0.0320145 0 -0.00403466)
(0.0320997 0 -0.00224956)
(0.0327725 0 -0.00121631)
(0.0347469 0 -0.00144944)
(0.0368387 0 -0.00116686)
(0.0377773 0 -0.00172716)
(0.0386277 0 -0.00181056)
(0.0391381 0 -0.00138115)
(0.0396087 0 -0.000241912)
(0.0405096 0 0.000505951)
(0.0410816 0 0.003195)
(0.0430892 0 0.00516161)
(0.042263 0 0.00379054)
(0.0433574 0 0.00231324)
(0.0372143 0 0.000845283)
(0.0363482 0 -0.00022799)
(0.034665 0 -0.00326671)
(0.0351889 0 -0.00442528)
(0.0354142 0 -0.0025968)
(0.0360266 0 -0.00164508)
(0.0374203 0 -0.00125069)
(0.0384691 0 -0.00112689)
(0.0390724 0 -0.00152069)
(0.0396565 0 -0.00166704)
(0.0401141 0 -0.0014352)
(0.0405604 0 -0.00114969)
(0.0410779 0 -0.000951887)
(0.0415476 0 -0.000870901)
(0.0419437 0 -0.000819559)
(0.0422697 0 -0.000776637)
(0.042551 0 -0.000703698)
(0.0427936 0 -0.000600266)
(0.0430005 0 -0.000494484)
(0.0431863 0 -0.000392024)
(0.0433258 0 -0.000249395)
(0.0434033 0 -8.87363e-05)
(0.0434186 0 4.99441e-05)
(0.0433788 0 0.000171941)
(0.0432884 0 0.000269008)
(0.0431489 0 0.0003803)
(0.0429437 0 0.00053095)
(0.0426654 0 0.000724185)
(0.0423273 0 0.000883033)
(0.0419425 0 0.000966224)
(0.0415114 0 0.00106772)
(0.0410173 0 0.00121861)
(0.040442 0 0.00138745)
(0.03981 0 0.00153997)
(0.0391347 0 0.00167606)
(0.038408 0 0.00180183)
(0.0376096 0 0.00194037)
(0.0367362 0 0.00209642)
(0.0357965 0 0.00224412)
(0.0347983 0 0.0023797)
(0.0337529 0 0.0025163)
(0.0326524 0 0.0026523)
(0.031495 0 0.00279042)
(0.0302681 0 0.00296366)
(0.02896 0 0.00315348)
(0.0275867 0 0.00326925)
(0.0261705 0 0.00335602)
(0.024718 0 0.00348592)
(0.0231925 0 0.00367362)
(0.0216031 0 0.00384945)
(0.0199712 0 0.00390981)
(0.0183066 0 0.00393035)
(0.0166268 0 0.00398519)
(0.0149173 0 0.00404915)
(0.0131962 0 0.00415814)
(0.0114477 0 0.00425354)
(0.00968185 0 0.00424465)
(0.00792478 0 0.00417843)
(0.00617834 0 0.00405448)
(0.00449149 0 0.0039166)
(0.00285786 0 0.00382051)
(0.001264 0 0.00371392)
(-0.000279695 0 0.0036117)
(-0.00179218 0 0.00353209)
(-0.00326954 0 0.00339816)
(-0.00469104 0 0.00321303)
(-0.00604221 0 0.0030442)
(-0.0073208 0 0.0029289)
(-0.00854387 0 0.0028477)
(-0.00972329 0 0.00275775)
(-0.010866 0 0.00265405)
(-0.0119728 0 0.00252907)
(-0.0130354 0 0.00239652)
(-0.0140419 0 0.0022788)
(-0.0149965 0 0.00218059)
(-0.0159117 0 0.00211124)
(-0.0167928 0 0.00205268)
(-0.0176405 0 0.00197088)
(-0.0184526 0 0.00187197)
(-0.0192218 0 0.00174519)
(-0.0199483 0 0.00164674)
(-0.0206384 0 0.00157411)
(-0.0212976 0 0.00151297)
(-0.021927 0 0.001446)
(-0.0225199 0 0.00136837)
(-0.0230769 0 0.00127762)
(-0.0236046 0 0.00119754)
(-0.0241068 0 0.00113988)
(-0.0245867 0 0.00110159)
(-0.0250379 0 0.00104903)
(-0.0254552 0 0.000948731)
(-0.0258379 0 0.000853849)
(-0.0261908 0 0.000795152)
(-0.0265218 0 0.000743481)
(-0.0268306 0 0.000701453)
(-0.0271208 0 0.000676965)
(-0.0273916 0 0.00063236)
(-0.02764 0 0.000565541)
(-0.0278622 0 0.00048109)
(-0.028055 0 0.000416395)
(-0.0282256 0 0.0003709)
(-0.0283793 0 0.000331628)
(-0.0285138 0 0.000308466)
(-0.0286319 0 0.000281942)
(-0.0287343 0 0.000239208)
(-0.028822 0 0.000184263)
(-0.0288904 0 0.000121454)
(-0.0289354 0 7.45764e-05)
(-0.0289629 0 4.0229e-05)
(-0.0289771 0 2.2297e-05)
(-0.0289817 0 1.2829e-05)
(-0.0289765 0 -1.90558e-05)
(-0.028954 0 -6.7838e-05)
(-0.0289099 0 -0.000119584)
(-0.028849 0 -0.000161473)
(-0.028776 0 -0.000187219)
(-0.028692 0 -0.000206651)
(-0.0286018 0 -0.000224846)
(-0.0285078 0 -0.000244783)
(-0.0284048 0 -0.000262629)
(-0.0282881 0 -0.000281551)
(-0.0281544 0 -0.000309135)
(-0.0280049 0 -0.000345109)
(-0.0278485 0 -0.000383826)
(-0.0276865 0 -0.000405991)
(-0.0275171 0 -0.000419302)
(-0.0273427 0 -0.00042245)
(-0.0271625 0 -0.000417841)
(-0.0269712 0 -0.000440277)
(-0.0267677 0 -0.000496262)
(-0.0265533 0 -0.000523155)
(-0.0263328 0 -0.00053087)
(-0.0261121 0 -0.000539395)
(-0.0258852 0 -0.000540561)
(-0.0256496 0 -0.000549849)
(-0.025402 0 -0.0005788)
(-0.0251456 0 -0.000604486)
(-0.0248849 0 -0.000624171)
(-0.0246225 0 -0.000631698)
(-0.0243608 0 -0.000637203)
(-0.0240885 0 -0.000655465)
(-0.0237996 0 -0.000676003)
(-0.0235037 0 -0.000696726)
(-0.0232035 0 -0.00072185)
(-0.0228976 0 -0.000734402)
(-0.0225882 0 -0.00073114)
(-0.0222782 0 -0.000725581)
(-0.0219628 0 -0.000738808)
(-0.0216375 0 -0.000778852)
(-0.0213001 0 -0.000810044)
(-0.0209547 0 -0.000822211)
(-0.0206065 0 -0.000833296)
(-0.0202541 0 -0.00084626)
(-0.0198968 0 -0.00085076)
(-0.0195308 0 -0.000849275)
(-0.0191583 0 -0.000862356)
(-0.018781 0 -0.000889922)
(-0.0183995 0 -0.000916859)
(-0.0180104 0 -0.0009359)
(-0.0176122 0 -0.00095161)
(-0.0172064 0 -0.000970218)
(-0.0167906 0 -0.000984455)
(-0.0163736 0 -0.000981145)
(-0.0159526 0 -0.00098268)
(-0.0155247 0 -0.00101393)
(-0.0150846 0 -0.00105069)
(-0.0146349 0 -0.00106588)
(-0.0141822 0 -0.00107923)
(-0.0137251 0 -0.00109622)
(-0.013259 0 -0.00111304)
(-0.0127827 0 -0.00111613)
(-0.0123017 0 -0.00112856)
(-0.011811 0 -0.0011527)
(-0.0113147 0 -0.00117736)
(-0.0108145 0 -0.0011962)
(-0.0103095 0 -0.0012131)
(-0.00979468 0 -0.00122727)
(-0.00927088 0 -0.00123149)
(-0.00873966 0 -0.00124011)
(-0.00820775 0 -0.0012493)
(-0.0076786 0 -0.00126188)
(-0.00714677 0 -0.00127695)
(-0.0066072 0 -0.00128516)
(-0.00606285 0 -0.00127778)
(-0.00551994 0 -0.00127051)
(-0.00498393 0 -0.00126626)
(-0.00445467 0 -0.00126417)
(-0.00392412 0 -0.00125453)
(-0.00339663 0 -0.0012338)
(-0.0028783 0 -0.00120984)
(-0.00237351 0 -0.00118654)
(-0.00188058 0 -0.0011623)
(-0.00139737 0 -0.00113082)
(-0.000926949 0 -0.00109137)
(-0.000471718 0 -0.0010492)
(-3.54185e-05 0 -0.00100806)
(0.000382627 0 -0.000969912)
(0.000786512 0 -0.000933328)
(0.00117623 0 -0.000896356)
(0.00155031 0 -0.000859174)
(0.00190872 0 -0.000822855)
(0.00225135 0 -0.000787788)
(0.00257919 0 -0.00075489)
(0.00289347 0 -0.000723333)
(0.00319468 0 -0.000692497)
(0.00348339 0 -0.000662947)
(0.0037597 0 -0.000635181)
(0.0040242 0 -0.000608492)
(0.00427689 0 -0.00058179)
(0.00451846 0 -0.000556185)
(0.00474975 0 -0.000532732)
(0.00497156 0 -0.000511428)
(0.00518438 0 -0.000491048)
(0.00538822 0 -0.000470635)
(0.00558335 0 -0.000449846)
(0.00577 0 -0.000429375)
(0.00594864 0 -0.000411133)
(0.00611957 0 -0.000395387)
(0.00628397 0 -0.000380969)
(0.00644264 0 -0.000366478)
(0.00659538 0 -0.00035207)
(0.0067421 0 -0.000338042)
(0.00688278 0 -0.000324453)
(0.0070176 0 -0.000311329)
(0.0071465 0 -0.000298817)
(0.00727003 0 -0.000287454)
(0.00738944 0 -0.000276815)
(0.00750466 0 -0.00026619)
(0.00761556 0 -0.000255663)
(0.00772208 0 -0.000245175)
(0.00782416 0 -0.000234718)
(0.00792179 0 -0.000224196)
(0.00801493 0 -0.000213936)
(0.00810384 0 -0.000204554)
(0.008189 0 -0.000195475)
(0.00827009 0 -0.000186246)
(0.00834739 0 -0.000176927)
(0.00842048 0 -0.000166934)
(0.00848896 0 -0.000157163)
(0.00855357 0 -0.000147845)
(0.00861436 0 -0.000138666)
(0.00867138 0 -0.000129445)
(0.00872439 0 -0.000120232)
(0.00877339 0 -0.000111035)
(0.00881828 0 -0.000100921)
(0.00885888 0 -9.00035e-05)
(0.00889549 0 -7.9664e-05)
(0.00892808 0 -7.08193e-05)
(0.00895665 0 -6.29558e-05)
(0.00898157 0 -5.39109e-05)
(0.00900158 0 -4.25018e-05)
(0.00901654 0 -3.12975e-05)
(0.00902749 0 -2.26975e-05)
(0.00903542 0 -1.50283e-05)
(0.00903997 0 -7.04637e-06)
(0.00904111 0 2.20906e-06)
(0.0090373 0 1.22102e-05)
(0.00902902 0 2.1375e-05)
(0.00901669 0 3.12131e-05)
(0.00900122 0 4.1735e-05)
(0.00898286 0 4.96418e-05)
(0.00896071 0 5.56002e-05)
(0.00893507 0 6.18098e-05)
(0.00890587 0 7.06888e-05)
(0.0088728 0 7.82041e-05)
(0.00883646 0 8.68656e-05)
(0.0087974 0 9.4064e-05)
(0.00875537 0 0.000101569)
(0.00871061 0 0.0001061)
(0.00866279 0 0.000114337)
(0.00861225 0 0.000121028)
(0.00855958 0 0.000128661)
(0.00850454 0 0.000131843)
(0.00844724 0 0.000137703)
(0.00838698 0 0.000141912)
(0.00832489 0 0.000147528)
(0.00826088 0 0.000150732)
(0.00819621 0 0.000157646)
(0.00812969 0 0.000162811)
(0.00806146 0 0.000167275)
(0.00798965 0 0.000170795)
(0.0079167 0 0.000170318)
(0.00784436 0 0.00017358)
(0.007771 0 0.000172359)
(0.00769743 0 0.000186046)
(0.00761985 0 0.000186948)
(0.00754632 0 0.000196866)
(0.00746554 0 0.000180018)
(0.00739586 0 0.000194882)
(0.00731026 0 0.000182888)
(0.00723407 0 0.000199416)
(0.00714808 0 0.000182927)
(0.00706981 0 0.000187233)
(0.00699013 0 0.000182079)
(0.00691226 0 0.000187905)
(0.00685464 0 0.00017648)
(0.00677132 0 0.000174853)
(0.00668906 0 0.000132415)
(0.006611 0 0.000147803)
(0.00650707 0 0.000194746)
(0.00644848 0 0.000194306)
(0.00646891 0 0.000214707)
(0.00640792 0 0.000159666)
(0.00632861 0 -7.81725e-05)
(0.00626203 0 -4.8445e-05)
(0.00592896 0 0.000213437)
(0.00560153 0 0.00026616)
(0.00499778 0 0.000655802)
(0.00482607 0 0.00079859)
(0.00449752 0 0.00107156)
(0.00454588 0 0.000801904)
(0.0043617 0 0.000502601)
(0.00429787 0 0.000451906)
(0.00413628 0 0.000328761)
(0.00402762 0 0.000317981)
(0.00390636 0 0.00027394)
(0.00379529 0 0.000324248)
(0.00370439 0 0.000226811)
(0.00360691 0 0.000236415)
(0.00361906 0 0.000126763)
(0.00343381 0 0.000163699)
(0.00328725 0 -7.742e-05)
(0.00322351 0 0.000215059)
(0.00294858 0 0.000419051)
(0.00285117 0 0.00027112)
(0.00242206 0 0.000330477)
(0.0028319 0 0.000354566)
(0.00274813 0 0.000631936)
(0.00301704 0 0.000163491)
(0.00277922 0 -0.000201704)
(0.0027807 0 -5.27664e-05)
(0.00267537 0 5.72101e-06)
(0.0026053 0 4.08085e-05)
(0.00256614 0 0.000114818)
(0.00250413 0 0.000136722)
(0.00247942 0 0.000207931)
(0.00243023 0 0.000248273)
(0.00239997 0 0.00019268)
(0.00238342 0 0.000119997)
(0.00226158 0 8.34756e-05)
(0.00211391 0 9.72838e-05)
(0.00198256 0 0.000161965)
(0.00178314 0 0.000496883)
(0.0014442 0 0.000424634)
(0.0017254 0 0.000572434)
(0.000870582 0 0.000427393)
(0.002933 0 -2.67666e-05)
(0.00338358 0 0.000556242)
(0.00439184 0 -0.000522868)
(0.00585558 0 -0.00141397)
(0.00582729 0 -0.00204194)
(0.00631778 0 -0.00207136)
(0.0063791 0 -0.00204209)
(0.00650915 0 -0.00178959)
(0.00674746 0 -0.00139791)
(0.00698859 0 -0.000943862)
(0.00718691 0 -0.0006762)
(0.00733947 0 -0.000541988)
(0.00746072 0 -0.000465256)
(0.00756305 0 -0.000328836)
(0.0076594 0 -0.000231171)
(0.00774972 0 -0.000202691)
(0.00783388 0 -0.000184853)
(0.00791146 0 -0.000205214)
(0.00797488 0 -0.000185121)
(0.00802194 0 -0.00012556)
(0.00806734 0 -0.000100667)
(0.00811657 0 -0.000117948)
(0.00817109 0 -0.000130742)
(0.00822534 0 -0.000124928)
(0.00828063 0 -0.000125462)
(0.00834414 0 -0.000159908)
(0.00841022 0 -0.000187773)
(0.00848028 0 -0.00018011)
(0.00855385 0 -0.000154306)
(0.00863308 0 -0.000157445)
(0.00871845 0 -0.000173949)
(0.00880869 0 -0.000207575)
(0.00890532 0 -0.000234597)
(0.00901643 0 -0.000256669)
(0.00913726 0 -0.000284276)
(0.00926166 0 -0.000293294)
(0.00938828 0 -0.000283661)
(0.00951905 0 -0.000278275)
(0.00965916 0 -0.000309242)
(0.00981331 0 -0.00036379)
(0.00998238 0 -0.000427275)
(0.0101646 0 -0.000473225)
(0.0103565 0 -0.000493959)
(0.0105581 0 -0.000509947)
(0.0107712 0 -0.000519578)
(0.0109971 0 -0.000546787)
(0.0112362 0 -0.000573761)
(0.0114833 0 -0.000587529)
(0.0117363 0 -0.000610618)
(0.0119968 0 -0.000642388)
(0.0122639 0 -0.000667891)
(0.0125371 0 -0.000678573)
(0.012817 0 -0.000679309)
(0.0131044 0 -0.000678064)
(0.0133997 0 -0.000681203)
(0.0137024 0 -0.000693221)
(0.0140105 0 -0.000711404)
(0.0143236 0 -0.000732866)
(0.0146411 0 -0.000753673)
(0.0149649 0 -0.000770434)
(0.0152952 0 -0.000782762)
(0.0156298 0 -0.000791842)
(0.0159688 0 -0.000799727)
(0.0163109 0 -0.000808393)
(0.0166566 0 -0.000820101)
(0.0170074 0 -0.000832024)
(0.0173609 0 -0.000839435)
(0.0177173 0 -0.000843874)
(0.0180698 0 -0.000842368)
(0.0184349 0 -0.00084728)
(0.0187838 0 -0.000852054)
(0.0191748 0 -0.000865717)
(0.0195092 0 -0.000866721)