/*--------------------------------*- C++ -*----------------------------------*\
| =========                 |                                                 |
| \\      /  F ield         | OpenFOAM: The Open Source CFD Toolbox           |
|  \\    /   O peration     | Version:  v2006                                 |
|   \\  /    A nd           | Website:  www.openfoam.com                      |
|    \\/     M anipulation  |                                                 |
\*---------------------------------------------------------------------------*/
FoamFile
{
    version     2.0;
    format      ascii;
    class       surfaceScalarField;
    location    "4";
    object      alphaPhi0.water;
}
// * * * * * * * * * * * * * * * * * * * * * * * * * * * * * * * * * * * * * //

dimensions      [0 3 -1 0 0 0 0];
oriented        oriented;


internalField   nonuniform List<scalar> 
65390
(
-5.6052e-06
-2.31892e-05
-7.65007e-06
2.04237e-06
-1.07587e-05
3.10779e-06
-1.43697e-05
3.61159e-06
-1.80141e-05
3.64412e-06
-2.16229e-05
3.60876e-06
-2.50845e-05
3.46326e-06
-2.83832e-05
3.30147e-06
-3.15384e-05
3.15502e-06
-3.45121e-05
2.97386e-06
-3.72985e-05
2.77809e-06
-3.98501e-05
2.54853e-06
-4.2215e-05
2.36398e-06
-4.445e-05
2.23715e-06
-4.6705e-05
2.26511e-06
-4.90969e-05
2.39203e-06
-5.15773e-05
2.48028e-06
-5.39337e-05
2.33957e-06
-5.59434e-05
2.00603e-06
-5.76899e-05
1.7459e-06
-5.938e-05
1.68978e-06
-6.11968e-05
1.81659e-06
-6.31347e-05
1.94015e-06
-6.51153e-05
1.9967e-06
-6.7123e-05
2.02567e-06
-6.91668e-05
2.0468e-06
-7.12001e-05
1.99985e-06
-7.29383e-05
1.7397e-06
-7.44721e-05
1.53227e-06
-7.5957e-05
1.49922e-06
-7.76525e-05
1.71335e-06
-7.94525e-05
1.80021e-06
-8.11051e-05
1.62185e-06
-8.24158e-05
1.30606e-06
-8.35625e-05
1.14814e-06
-8.48e-05
1.24299e-06
-8.6296e-05
1.55338e-06
-8.80588e-05
1.76061e-06
-8.97789e-05
1.69891e-06
-9.11169e-05
1.2971e-06
-9.19827e-05
8.62794e-07
-9.27836e-05
8.06303e-07
-9.36961e-05
9.45423e-07
-9.48053e-05
1.12731e-06
-9.61469e-05
1.29088e-06
-9.73541e-05
1.20318e-06
-9.83143e-05
9.60046e-07
-9.90389e-05
7.24224e-07
-9.96403e-05
6.01471e-07
-0.00010021
5.79318e-07
-0.000100874
6.69974e-07
-0.000101527
6.39459e-07
-0.000101966
4.37218e-07
-0.000102225
2.59073e-07
-0.000102505
2.79774e-07
-0.000102944
4.48012e-07
-0.000103513
6.20365e-07
-0.000104104
5.90855e-07
-0.00010448
3.45792e-07
-0.000104483
-1.64837e-08
-0.00010434
-1.41997e-07
-0.00010424
-9.86139e-08
-0.000104198
-4.2955e-08
-0.000104015
-1.90264e-07
-0.0001033
-7.15009e-07
-0.000101926
-1.37427e-06
-0.000100099
-1.8246e-06
-9.79233e-05
-2.13722e-06
-9.54438e-05
-2.4791e-06
-9.24183e-05
-3.02509e-06
-8.85348e-05
-3.88314e-06
-8.36616e-05
-4.89064e-06
-7.76891e-05
-5.98751e-06
-7.09691e-05
-6.72014e-06
-6.43369e-05
-6.63211e-06
-5.82705e-05
-6.06657e-06
-5.22535e-05
-6.00856e-06
-4.53723e-05
-6.8722e-06
-3.98112e-05
-5.56117e-06
-3.6565e-05
-3.24622e-06
-3.63835e-05
-1.89282e-07
-3.78499e-05
1.4613e-06
-3.84716e-05
6.21587e-07
-3.92015e-05
7.29844e-07
-4.01162e-05
9.14558e-07
-3.9833e-05
-2.82019e-07
-3.93268e-05
-4.99989e-07
-3.90822e-05
-2.39853e-07
-3.90834e-05
1.1763e-09
-3.88415e-05
-2.49402e-07
-3.85733e-05
-2.70718e-07
-3.79621e-05
-6.11207e-07
-3.68489e-05
-1.1075e-06
-3.54119e-05
-1.43713e-06
-3.32369e-05
-2.17746e-06
-3.02398e-05
-3.00069e-06
-2.63214e-05
-3.91841e-06
-2.21518e-05
-4.1696e-06
-1.81515e-05
-3.99894e-06
-1.60226e-05
-2.1267e-06
-1.56068e-05
-4.15753e-07
-1.59334e-05
3.26545e-07
-1.65967e-05
6.63376e-07
-1.71559e-05
5.56607e-07
-1.79484e-05
7.92535e-07
-1.83777e-05
4.29316e-07
-1.84713e-05
9.33982e-08
-1.85812e-05
1.09833e-07
-1.88167e-05
2.36058e-07
-1.90604e-05
2.44742e-07
-1.92438e-05
1.83485e-07
-1.9398e-05
1.51681e-07
-1.93642e-05
-3.38093e-08
-1.90656e-05
-2.98725e-07
-1.83896e-05
-6.76101e-07
-1.73304e-05
-1.05798e-06
-1.58324e-05
-1.49445e-06
-1.48876e-05
-9.48519e-07
-1.47809e-05
-1.07488e-07
-1.49998e-05
2.18808e-07
-1.53594e-05
3.59556e-07
-1.56459e-05
2.86471e-07
-1.61188e-05
4.74347e-07
-1.64985e-05
3.80752e-07
-1.67225e-05
2.23651e-07
-1.69738e-05
2.50067e-07
-1.72074e-05
2.33128e-07
-1.74295e-05
2.2305e-07
-1.76728e-05
2.41737e-07
-1.7881e-05
2.08258e-07
-1.80562e-05
1.75196e-07
-1.82283e-05
1.72115e-07
-1.83835e-05
1.56056e-07
-1.8529e-05
1.44996e-07
-1.86672e-05
1.38128e-07
-1.87989e-05
1.31767e-07
-1.89223e-05
1.23513e-07
-1.90334e-05
1.11033e-07
-1.91357e-05
1.02347e-07
-1.92276e-05
9.18814e-08
-1.93068e-05
8.07822e-08
-1.93766e-05
6.86047e-08
-1.94262e-05
4.96233e-08
-1.94621e-05
3.58523e-08
-1.9488e-05
2.59824e-08
-1.94986e-05
1.25001e-08
-1.94966e-05
-3.19177e-09
-1.94747e-05
-2.26768e-08
-1.94362e-05
-3.85188e-08
-1.9386e-05
-5.02034e-08
-1.93232e-05
-6.1302e-08
-1.92478e-05
-7.55683e-08
-1.9154e-05
-9.54518e-08
-1.90387e-05
-1.15298e-07
-1.89085e-05
-1.30168e-07
-1.8766e-05
-1.42176e-07
-1.86117e-05
-1.53201e-07
-1.84423e-05
-1.70387e-07
-1.8251e-05
-1.9131e-07
-1.80424e-05
-2.08597e-07
-1.78205e-05
-2.20906e-07
-1.75901e-05
-2.31458e-07
-1.73391e-05
-2.51027e-07
-1.70671e-05
-2.71942e-07
-1.67787e-05
-2.87905e-07
-1.64796e-05
-2.98627e-07
-1.61672e-05
-3.12883e-07
-1.58305e-05
-3.36715e-07
-1.54733e-05
-3.57202e-07
-1.51019e-05
-3.70871e-07
-1.47198e-05
-3.81712e-07
-1.43213e-05
-3.98962e-07
-1.38963e-05
-4.24997e-07
-1.34506e-05
-4.45648e-07
-1.29918e-05
-4.58576e-07
-1.2521e-05
-4.70353e-07
-1.20333e-05
-4.8763e-07
-1.1525e-05
-5.0845e-07
-1.09968e-05
-5.28197e-07
-1.0453e-05
-5.43777e-07
-9.89824e-06
-5.53675e-07
-9.33203e-06
-5.66224e-07
-8.75025e-06
-5.82083e-07
-8.15196e-06
-5.98169e-07
-7.54493e-06
-6.06879e-07
-6.93852e-06
-6.05911e-07
-6.32544e-06
-6.13196e-07
-5.69693e-06
-6.28757e-07
-5.0617e-06
-6.35206e-07
-4.43132e-06
-6.30035e-07
-3.80504e-06
-6.26255e-07
-3.18212e-06
-6.22942e-07
-2.56472e-06
-6.17767e-07
-1.95285e-06
-6.11953e-07
-1.35319e-06
-5.99745e-07
-7.64805e-07
-5.88466e-07
-1.88827e-07
-5.76069e-07
3.69395e-07
-5.58379e-07
9.09207e-07
-5.39922e-07
1.43365e-06
-5.24533e-07
1.94641e-06
-5.12905e-07
2.44891e-06
-5.02652e-07
2.93622e-06
-4.87462e-07
3.40392e-06
-4.68044e-07
3.8549e-06
-4.51276e-07
4.29289e-06
-4.38078e-07
4.72026e-06
-4.2718e-07
5.13731e-06
-4.172e-07
5.54045e-06
-4.03282e-07
5.92696e-06
-3.86791e-07
6.29922e-06
-3.72396e-07
6.66057e-06
-3.61416e-07
7.01061e-06
-3.50148e-07
7.34504e-06
-3.34821e-07
7.66402e-06
-3.18934e-07
7.97136e-06
-3.07187e-07
8.26697e-06
-2.95632e-07
8.5518e-06
-2.84906e-07
8.82478e-06
-2.72991e-07
9.08077e-06
-2.56554e-07
9.32123e-06
-2.40397e-07
9.55014e-06
-2.28475e-07
9.76846e-06
-2.18108e-07
9.97647e-06
-2.08e-07
1.01722e-05
-1.95777e-07
1.03522e-05
-1.80209e-07
1.05185e-05
-1.6633e-07
1.06744e-05
-1.55202e-07
1.08182e-05
-1.43726e-07
1.09505e-05
-1.32192e-07
1.10727e-05
-1.22368e-07
1.11822e-05
-1.09624e-07
1.12781e-05
-9.61155e-08
1.13641e-05
-8.55014e-08
1.14396e-05
-7.54979e-08
1.15053e-05
-6.56639e-08
1.15608e-05
-5.60224e-08
1.16058e-05
-4.50647e-08
1.16403e-05
-3.44823e-08
1.16657e-05
-2.51504e-08
1.16825e-05
-1.68966e-08
1.169e-05
-7.62145e-09
1.16881e-05
1.42773e-09
1.16789e-05
9.43744e-09
1.16618e-05
1.70644e-08
1.16389e-05
2.29124e-08
1.1608e-05
3.06005e-08
1.15689e-05
3.92614e-08
1.15236e-05
4.55659e-08
1.14736e-05
5.0022e-08
1.14184e-05
5.51101e-08
1.13569e-05
6.15447e-08
1.12897e-05
6.72617e-08
1.12189e-05
7.08259e-08
1.11433e-05
7.55525e-08
1.10636e-05
7.98531e-08
1.09805e-05
8.33752e-08
1.08941e-05
8.63411e-08
1.08049e-05
8.9251e-08
1.0712e-05
9.28553e-08
1.06164e-05
9.57771e-08
1.05191e-05
9.73709e-08
1.04206e-05
9.84958e-08
1.03202e-05
1.00413e-07
1.02173e-05
1.02943e-07
1.01122e-05
1.05069e-07
1.00052e-05
1.06934e-07
9.8979e-06
1.07352e-07
9.7912e-06
1.06708e-07
9.68415e-06
1.07028e-07
9.57622e-06
1.07901e-07
9.46652e-06
1.09506e-07
9.35573e-06
1.10846e-07
9.24496e-06
1.10843e-07
9.13466e-06
1.10311e-07
9.02476e-06
1.09885e-07
8.91471e-06
1.10019e-07
8.80425e-06
1.10505e-07
8.69374e-06
1.10507e-07
8.58432e-06
1.09423e-07
8.47456e-06
1.09602e-07
8.36387e-06
1.10828e-07
8.2536e-06
1.10368e-07
8.14433e-06
1.09279e-07
8.03623e-06
1.08106e-07
7.92847e-06
1.07791e-07
7.82081e-06
1.07689e-07
7.71256e-06
1.08286e-07
7.60445e-06
1.0815e-07
7.49678e-06
1.07699e-07
7.39017e-06
1.06608e-07
7.28483e-06
1.05363e-07
7.17955e-06
1.05266e-07
7.07351e-06
1.05971e-07
6.96788e-06
1.05716e-07
6.86273e-06
1.05184e-07
6.75813e-06
1.04601e-07
6.65426e-06
1.03873e-07
6.55066e-06
1.036e-07
6.44705e-06
1.03663e-07
6.34358e-06
1.03505e-07
6.24051e-06
1.03107e-07
6.13847e-06
1.02067e-07
6.03659e-06
1.01901e-07
5.93469e-06
1.01917e-07
5.83312e-06
1.0163e-07
5.7324e-06
1.00759e-07
5.6329e-06
9.9529e-08
5.53309e-06
9.98323e-08
5.43336e-06
9.97348e-08
5.33411e-06
9.92879e-08
5.23585e-06
9.8298e-08
5.13844e-06
9.74191e-08
5.04146e-06
9.6993e-08
4.94485e-06
9.66183e-08
4.84881e-06
9.60656e-08
4.75386e-06
9.49688e-08
4.65978e-06
9.40851e-08
4.56606e-06
9.37106e-08
4.47292e-06
9.31565e-08
4.38058e-06
9.23689e-08
4.2896e-06
9.09839e-08
4.19981e-06
8.9791e-08
4.11014e-06
8.96722e-08
4.02119e-06
8.89515e-08
3.93359e-06
8.76103e-08
3.84762e-06
8.59788e-08
3.76227e-06
8.53388e-08
3.67747e-06
8.48014e-08
3.59368e-06
8.37833e-08
3.51093e-06
8.2753e-08
3.4295e-06
8.14307e-08
3.34941e-06
8.00859e-08
3.27048e-06
7.89226e-08
3.19266e-06
7.78027e-08
3.1159e-06
7.67569e-08
3.04016e-06
7.57431e-08
2.96553e-06
7.46181e-08
2.89228e-06
7.32492e-08
2.8204e-06
7.18714e-08
2.7493e-06
7.10818e-08
2.67903e-06
7.0269e-08
2.60982e-06
6.92064e-08
2.54174e-06
6.80687e-08
2.47505e-06
6.66861e-08
2.40968e-06
6.53689e-08
2.34512e-06
6.45496e-08
2.28142e-06
6.36962e-08
2.21866e-06
6.27532e-08
2.15734e-06
6.13158e-08
2.09721e-06
6.01208e-08
2.03766e-06
5.95404e-08
1.97898e-06
5.86793e-08
1.92129e-06
5.76875e-08
1.86477e-06
5.65124e-08
1.80923e-06
5.5527e-08
1.75429e-06
5.49355e-08
1.70022e-06
5.40663e-08
1.64721e-06
5.30051e-08
1.59521e-06
5.19882e-08
1.54391e-06
5.12988e-08
1.49331e-06
5.05966e-08
1.44354e-06
4.97687e-08
1.39456e-06
4.8981e-08
1.34657e-06
4.79847e-08
1.29935e-06
4.72147e-08
1.25269e-06
4.66585e-08
1.20672e-06
4.5965e-08
1.16146e-06
4.52626e-08
1.11696e-06
4.4491e-08
1.07339e-06
4.35685e-08
1.03056e-06
4.28311e-08
9.88363e-07
4.21933e-08
9.46832e-07
4.15291e-08
9.06097e-07
4.07321e-08
8.66047e-07
4.0045e-08
8.26524e-07
3.95208e-08
7.8758e-07
3.89404e-08
7.49221e-07
3.83561e-08
7.11547e-07
3.76713e-08
6.74673e-07
3.68716e-08
6.38461e-07
3.62097e-08
6.02777e-07
3.56815e-08
5.67589e-07
3.5187e-08
5.32898e-07
3.46901e-08
4.98806e-07
3.40899e-08
4.65301e-07
3.35035e-08
4.32438e-07
3.28604e-08
4.00175e-07
3.22612e-08
3.68321e-07
3.18522e-08
3.37046e-07
3.12739e-08
3.06563e-07
3.04811e-08
2.76719e-07
2.98417e-08
2.47144e-07
2.9573e-08
2.18208e-07
2.89329e-08
1.89918e-07
2.82879e-08
1.62049e-07
2.78668e-08
1.3469e-07
2.73565e-08
1.07953e-07
2.67346e-08
8.18637e-08
2.60876e-08
5.63415e-08
2.552e-08
3.14117e-08
2.49274e-08
6.91192e-09
2.44972e-08
-1.71177e-08
2.40268e-08
-4.07796e-08
2.36591e-08
-6.38798e-08
2.30976e-08
-8.66947e-08
2.28124e-08
-1.0878e-07
2.20829e-08
-1.30612e-07
2.18302e-08
-1.51979e-07
2.13649e-08
-1.72928e-07
2.09478e-08
-1.9332e-07
2.03899e-08
-2.13003e-07
1.96813e-08
-2.32562e-07
1.95573e-08
-2.5128e-07
1.87169e-08
-2.69164e-07
1.78826e-08
-2.86637e-07
1.7472e-08
-3.02414e-07
1.57755e-08
-3.17563e-07
1.51485e-08
-3.34827e-07
1.72627e-08
-3.50128e-07
1.53e-08
-3.64912e-07
1.47826e-08
-3.80247e-07
1.5333e-08
-3.83835e-07
3.58531e-09
-3.88253e-07
4.41566e-09
-4.08565e-07
2.03087e-08
-4.17289e-07
8.72185e-09
-4.4301e-07
2.57179e-08
-4.86639e-07
4.36273e-08
-5.64309e-07
7.76677e-08
-6.41396e-07
7.7085e-08
-6.84002e-07
4.26035e-08
-7.23395e-07
3.93902e-08
-7.50218e-07
2.68204e-08
-7.73949e-07
2.37285e-08
-7.93234e-07
1.92822e-08
-8.11882e-07
1.86462e-08
-8.28106e-07
1.62217e-08
-8.42954e-07
1.48451e-08
-8.54863e-07
1.19074e-08
-8.66699e-07
1.18345e-08
-8.69808e-07
3.10751e-09
-8.72959e-07
3.15024e-09
-8.85347e-07
1.23869e-08
-8.90165e-07
4.81824e-09
-9.04496e-07
1.43298e-08
-9.29948e-07
2.5452e-08
-9.74428e-07
4.44796e-08
-1.01804e-06
4.36103e-08
-1.04071e-06
2.26686e-08
-1.0613e-06
2.05858e-08
-1.07536e-06
1.40602e-08
-1.08648e-06
1.11227e-08
-1.09677e-06
1.0288e-08
-1.10378e-06
7.00627e-09
-1.10985e-06
6.06432e-09
-1.11055e-06
7.05272e-10
-1.10941e-06
-1.14678e-09
-1.11237e-06
2.95506e-09
-1.11147e-06
-8.96206e-10
-1.11236e-06
8.92164e-10
-1.11522e-06
2.85657e-09
-1.08185e-06
-3.33648e-08
-1.05e-06
-3.18513e-08
-1.05793e-06
7.92998e-09
-1.036e-06
-2.1928e-08
-1.10808e-06
7.20948e-08
-1.21525e-06
1.07169e-07
-1.5238e-06
3.08535e-07
-1.83684e-06
3.13067e-07
-2.04745e-06
2.10581e-07
-2.19929e-06
1.51836e-07
-2.3073e-06
1.07984e-07
-2.38873e-06
8.14132e-08
-2.45228e-06
6.35365e-08
-2.50372e-06
5.14278e-08
-2.54654e-06
4.2805e-08
-2.58296e-06
3.64086e-08
-2.6145e-06
3.15264e-08
-2.64219e-06
2.76841e-08
-2.66669e-06
2.44908e-08
-2.68847e-06
2.17697e-08
-2.70796e-06
1.94759e-08
-2.72554e-06
1.75766e-08
-2.74152e-06
1.59619e-08
-2.75602e-06
1.44973e-08
-2.76914e-06
1.31111e-08
-2.78094e-06
1.1787e-08
-2.79152e-06
1.05745e-08
-2.80102e-06
9.49165e-09
-2.80958e-06
8.55663e-09
-2.81728e-06
7.69196e-09
-2.82419e-06
6.89991e-09
-2.83034e-06
6.14502e-09
-2.83565e-06
5.31367e-09
-2.84021e-06
4.55947e-09
-2.84409e-06
3.86931e-09
-2.84721e-06
3.11871e-09
-2.84957e-06
2.36608e-09
-2.85117e-06
1.60058e-09
-2.85198e-06
8.05813e-10
-2.852e-06
1.55481e-11
-2.85126e-06
-7.41169e-10
-2.84983e-06
-1.42851e-09
-2.8478e-06
-2.02879e-09
-2.84527e-06
-2.53226e-09
-2.84246e-06
-2.81144e-09
-2.8392e-06
-3.2565e-09
-2.83561e-06
-3.59344e-09
-2.83178e-06
-3.83158e-09
-2.82777e-06
-4.01275e-09
-2.82363e-06
-4.13791e-09
-2.81941e-06
-4.22214e-09
-2.81511e-06
-4.30445e-09
-2.81068e-06
-4.43086e-09
-2.80604e-06
-4.63373e-09
-2.80113e-06
-4.91818e-09
-2.79586e-06
-5.27047e-09
-2.79019e-06
-5.67184e-09
-2.78409e-06
-6.09887e-09
-2.77759e-06
-6.50011e-09
-2.77081e-06
-6.78295e-09
-2.76395e-06
-6.85865e-09
-2.75721e-06
-6.74367e-09
-2.75057e-06
-6.6315e-09
-2.74383e-06
-6.74313e-09
-2.73665e-06
-7.18525e-09
-2.72892e-06
-7.7282e-09
-2.72106e-06
-7.8606e-09
-2.7136e-06
-7.46302e-09
-2.70665e-06
-6.94633e-09
-2.70003e-06
-6.61668e-09
-2.69289e-06
-7.14568e-09
-2.68501e-06
-7.87739e-09
-2.67704e-06
-7.96765e-09
-2.66959e-06
-7.44813e-09
-2.66253e-06
-7.05861e-09
-2.6548e-06
-7.72769e-09
-2.64609e-06
-8.7106e-09
-2.63724e-06
-8.84991e-09
-2.62882e-06
-8.41925e-09
-2.62024e-06
-8.58084e-09
-2.61071e-06
-9.53059e-09
-2.60111e-06
-9.60061e-09
-2.5924e-06
-8.70624e-09
-2.58425e-06
-8.14146e-09
-2.57602e-06
-8.22953e-09
-2.56819e-06
-7.82533e-09
-2.56116e-06
-7.03678e-09
-2.37512e-09
3.27229e-07
-5.23235e-05
-4.15567e-06
6.52496e-06
-9.28823e-06
8.24011e-06
-1.40818e-05
8.40513e-06
-1.85029e-05
8.06575e-06
-2.25238e-05
7.63024e-06
-2.61851e-05
7.12625e-06
-2.95135e-05
6.63215e-06
-3.25821e-05
6.22626e-06
-3.54368e-05
5.83147e-06
-3.81217e-05
5.46568e-06
-4.06738e-05
5.10308e-06
-4.31239e-05
4.81671e-06
-4.54819e-05
4.59831e-06
-4.77613e-05
4.55636e-06
-4.99623e-05
4.60563e-06
-5.2111e-05
4.6291e-06
-5.41799e-05
4.39676e-06
-5.61843e-05
4.00606e-06
-5.81719e-05
3.73481e-06
-6.0167e-05
3.6872e-06
-6.21187e-05
3.78359e-06
-6.39841e-05
3.82754e-06
-6.57535e-05
3.77058e-06
-6.74644e-05
3.73958e-06
-6.92621e-05
3.84513e-06
-7.12346e-05
3.93369e-06
-7.32323e-05
3.73592e-06
-7.51001e-05
3.41847e-06
-7.66881e-05
3.10385e-06
-7.80692e-05
3.09461e-06
-7.94381e-05
3.16701e-06
-8.09804e-05
3.1184e-06
-8.25172e-05
2.84366e-06
-8.3974e-05
2.61707e-06
-8.52638e-05
2.57628e-06
-8.65436e-05
2.83099e-06
-8.78857e-05
3.10484e-06
-8.93017e-05
3.06811e-06
-9.06295e-05
2.60394e-06
-9.18051e-05
2.03709e-06
-9.27945e-05
1.80026e-06
-9.37448e-05
1.91827e-06
-9.48321e-05
2.23154e-06
-9.59748e-05
2.43403e-06
-9.7167e-05
2.36495e-06
-9.82905e-05
2.06566e-06
-9.91991e-05
1.63246e-06
-9.99475e-05
1.35136e-06
-0.000100655
1.30594e-06
-0.00010136
1.39128e-06
-0.00010201
1.27439e-06
-0.000102532
9.34832e-07
-0.000102891
6.47141e-07
-0.000103244
6.68085e-07
-0.000103669
8.726e-07
-0.000104035
9.8694e-07
-0.000104327
8.82673e-07
-0.000104445
4.03673e-07
-0.000104475
1.57392e-08
-0.000104569
-2.95928e-08
-0.000104701
5.92562e-08
-0.000104804
6.10957e-08
-0.000104748
-2.90975e-07
-0.000104298
-1.1791e-06
-0.000103559
-2.11247e-06
-0.000102743
-2.63187e-06
-0.00010187
-2.98261e-06
-0.000100958
-3.39069e-06
-9.99732e-05
-4.00976e-06
-9.88426e-05
-5.02188e-06
-9.7433e-05
-6.33403e-06
-9.55981e-05
-7.82251e-06
-9.32604e-05
-9.05867e-06
-8.99584e-05
-9.9342e-06
-8.50966e-05
-1.09285e-05
-7.86419e-05
-1.24547e-05
-7.30238e-05
-1.2483e-05
-6.77139e-05
-1.08711e-05
-6.25325e-05
-8.42599e-06
-5.40992e-05
-8.62256e-06
-4.55606e-05
-7.08921e-06
-4.0644e-05
-4.29981e-06
-3.87418e-05
-1.17236e-06
-3.84772e-05
6.5069e-07
-3.85224e-05
-2.30363e-07
-3.89672e-05
-4.99774e-08
-3.96098e-05
4.02672e-07
-4.02614e-05
6.52797e-07
-3.98761e-05
-6.45057e-07
-3.92742e-05
-8.74334e-07
-3.89457e-05
-9.39654e-07
-3.86154e-05
-1.43189e-06
-3.83938e-05
-1.65851e-06
-3.8084e-05
-2.48782e-06
-3.76073e-05
-3.48442e-06
-3.72126e-05
-4.31318e-06
-3.62353e-05
-5.14677e-06
-3.43892e-05
-5.84257e-06
-3.10513e-05
-5.46179e-06
-2.67081e-05
-4.75897e-06
-2.21477e-05
-4.23385e-06
-1.92622e-05
-2.2221e-06
-1.8063e-05
-6.44336e-07
-1.747e-05
1.98188e-07
-1.75434e-05
5.02702e-07
-1.78342e-05
3.85485e-07
-1.83567e-05
6.35003e-07
-1.91023e-05
9.81636e-07
-1.94873e-05
6.29734e-07
-1.95056e-05
2.01745e-07
-1.95809e-05
2.21822e-07
-1.96821e-05
6.66161e-08
-1.98064e-05
-1.74486e-07
-2.0026e-05
-4.55956e-07
-2.02009e-05
-8.81137e-07
-2.0421e-05
-1.27462e-06
-2.00956e-05
-1.275e-06
-1.90533e-05
-1.15148e-06
-1.75101e-05
-1.32299e-06
-1.63745e-05
-7.74111e-07
-1.60936e-05
5.6828e-09
-1.60756e-05
4.56229e-07
-1.62645e-05
5.69694e-07
-1.65367e-05
4.94069e-07
-1.69823e-05
6.95229e-07
-1.73262e-05
5.76556e-07
-1.74985e-05
3.96261e-07
-1.76834e-05
4.26654e-07
-1.78665e-05
3.90038e-07
-1.80492e-05
3.58739e-07
-1.82452e-05
3.69357e-07
-1.84123e-05
3.2316e-07
-1.85465e-05
2.79217e-07
-1.86781e-05
2.67176e-07
-1.88042e-05
2.57827e-07
-1.89279e-05
2.4725e-07
-1.90415e-05
2.24598e-07
-1.91468e-05
2.10371e-07
-1.92415e-05
1.86606e-07
-1.93221e-05
1.61356e-07
-1.93892e-05
1.35062e-07
-1.94416e-05
9.99005e-08
-1.94774e-05
7.50944e-08
-1.95046e-05
5.32395e-08
-1.95153e-05
2.31756e-08
-1.95084e-05
-1.1263e-08
-1.94871e-05
-4.5286e-08
-1.94523e-05
-7.33078e-08
-1.94019e-05
-9.7857e-08
-1.93389e-05
-1.2428e-07
-1.92573e-05
-1.57158e-07
-1.91597e-05
-1.95243e-07
-1.9046e-05
-2.30092e-07
-1.89186e-05
-2.57538e-07
-1.87775e-05
-2.82125e-07
-1.86208e-05
-3.09353e-07
-1.84444e-05
-3.46258e-07
-1.82528e-05
-3.84416e-07
-1.80447e-05
-4.16723e-07
-1.7822e-05
-4.42144e-07
-1.7586e-05
-4.67023e-07
-1.73354e-05
-5.03195e-07
-1.70645e-05
-5.42882e-07
-1.67759e-05
-5.755e-07
-1.64738e-05
-5.99595e-07
-1.61578e-05
-6.29774e-07
-1.58213e-05
-6.73398e-07
-1.54648e-05
-7.13736e-07
-1.50932e-05
-7.41282e-07
-1.47074e-05
-7.66221e-07
-1.43054e-05
-8.0225e-07
-1.38811e-05
-8.49665e-07
-1.34382e-05
-8.88517e-07
-1.29812e-05
-9.14799e-07
-1.25077e-05
-9.43343e-07
-1.20153e-05
-9.79556e-07
-1.15074e-05
-1.01697e-06
-1.09846e-05
-1.05139e-06
-1.04468e-05
-1.08095e-06
-9.8933e-06
-1.10654e-06
-9.32188e-06
-1.13764e-06
-8.73858e-06
-1.16539e-06
-8.14645e-06
-1.19081e-06
-7.54721e-06
-1.20544e-06
-6.94164e-06
-1.21145e-06
-6.32864e-06
-1.22623e-06
-5.708e-06
-1.24985e-06
-5.08147e-06
-1.26197e-06
-4.45355e-06
-1.25812e-06
-3.82669e-06
-1.25314e-06
-3.20365e-06
-1.24601e-06
-2.59187e-06
-1.23017e-06
-1.98984e-06
-1.21422e-06
-1.39618e-06
-1.19364e-06
-8.09359e-07
-1.17564e-06
-2.31487e-07
-1.1543e-06
3.32416e-07
-1.12263e-06
8.77426e-07
-1.08509e-06
1.40453e-06
-1.05181e-06
1.9192e-06
-1.02782e-06
2.4227e-06
-1.0063e-06
2.91115e-06
-9.76272e-07
3.38158e-06
-9.39115e-07
3.83812e-06
-9.07905e-07
4.28248e-06
-8.82344e-07
4.71393e-06
-8.58823e-07
5.13183e-06
-8.3512e-07
5.53448e-06
-8.06074e-07
5.92238e-06
-7.75214e-07
6.2983e-06
-7.4816e-07
6.66236e-06
-7.25533e-07
7.01277e-06
-7.00536e-07
7.34783e-06
-6.70162e-07
7.66952e-06
-6.40777e-07
7.97894e-06
-6.16597e-07
8.27621e-06
-5.92915e-07
8.56147e-06
-5.69661e-07
8.83346e-06
-5.44974e-07
9.09104e-06
-5.14762e-07
9.33448e-06
-4.83783e-07
9.56474e-06
-4.58687e-07
9.78374e-06
-4.37055e-07
9.99174e-06
-4.15078e-07
1.01859e-05
-3.90083e-07
1.03667e-05
-3.61551e-07
1.05351e-05
-3.34787e-07
1.06913e-05
-3.11337e-07
1.08354e-05
-2.8787e-07
1.09676e-05
-2.64378e-07
1.10892e-05
-2.43318e-07
1.11981e-05
-2.1919e-07
1.12951e-05
-1.9358e-07
1.13811e-05
-1.71472e-07
1.14563e-05
-1.5066e-07
1.15215e-05
-1.30912e-07
1.15775e-05
-1.11558e-07
1.16223e-05
-9.04515e-08
1.16572e-05
-6.93578e-08
1.16815e-05
-4.94019e-08
1.16963e-05
-3.18158e-08
1.17024e-05
-1.42701e-08
1.17011e-05
2.80668e-09
1.1692e-05
1.85548e-08
1.16748e-05
3.46441e-08
1.16503e-05
4.74867e-08
1.16188e-05
6.20764e-08
1.15799e-05
7.8284e-08
1.15339e-05
9.17956e-08
1.14828e-05
1.01381e-07
1.14266e-05
1.11368e-07
1.13646e-05
1.23488e-07
1.12969e-05
1.34979e-07
1.12247e-05
1.43158e-07
1.11488e-05
1.51442e-07
1.10695e-05
1.59251e-07
1.09862e-05
1.66776e-07
1.08993e-05
1.73483e-07
1.08084e-05
1.80313e-07
1.0714e-05
1.8711e-07
1.06186e-05
1.91145e-07
1.05216e-05
1.94385e-07
1.04226e-05
1.97672e-07
1.03213e-05
2.01765e-07
1.02174e-05
2.06494e-07
1.0112e-05
2.10466e-07
1.00054e-05
2.13546e-07
9.89837e-06
2.14453e-07
9.7913e-06
2.13979e-07
9.6833e-06
2.15005e-07
9.5743e-06
2.16864e-07
9.46433e-06
2.19282e-07
9.35403e-06
2.21155e-07
9.2436e-06
2.21277e-07
9.13319e-06
2.20942e-07
9.02231e-06
2.20774e-07
8.91148e-06
2.20721e-07
8.80122e-06
2.20786e-07
8.69104e-06
2.20699e-07
8.58115e-06
2.19321e-07
8.47129e-06
2.19465e-07
8.36075e-06
2.21409e-07
8.2507e-06
2.2046e-07
8.14179e-06
2.18343e-07
8.03337e-06
2.16679e-07
7.9249e-06
2.1626e-07
7.81672e-06
2.15865e-07
7.70852e-06
2.16447e-07
7.60082e-06
2.15858e-07
7.49373e-06
2.14791e-07
7.38714e-06
2.13314e-07
7.28099e-06
2.11579e-07
7.17498e-06
2.11226e-07
7.06899e-06
2.11905e-07
6.96378e-06
2.10956e-07
6.85909e-06
2.09894e-07
6.75448e-06
2.09315e-07
6.64993e-06
2.08459e-07
6.54598e-06
2.07576e-07
6.44251e-06
2.07125e-07
6.33944e-06
2.0661e-07
6.23671e-06
2.05886e-07
6.1343e-06
2.04606e-07
6.03198e-06
2.04197e-07
5.93042e-06
2.03533e-07
5.8294e-06
2.02694e-07
5.72871e-06
2.01564e-07
5.62858e-06
1.99683e-07
5.52851e-06
1.99919e-07
5.42907e-06
1.99207e-07
5.33026e-06
1.98125e-07
5.23203e-06
1.96601e-07
5.13415e-06
1.95312e-07
5.03707e-06
1.94101e-07
4.94066e-06
1.93042e-07
4.84489e-06
1.91848e-07
4.74982e-06
1.90095e-07
4.65528e-06
1.88627e-07
4.56157e-06
1.87419e-07
4.46877e-06
1.8596e-07
4.37681e-06
1.84341e-07
4.28573e-06
1.82091e-07
4.19539e-06
1.80146e-07
4.10562e-06
1.79421e-07
4.01715e-06
1.77428e-07
3.92977e-06
1.74993e-07
3.84335e-06
1.72413e-07
3.75781e-06
1.70856e-07
3.67318e-06
1.69409e-07
3.58965e-06
1.67324e-07
3.50729e-06
1.65105e-07
3.42605e-06
1.62673e-07
3.34586e-06
1.60262e-07
3.26682e-06
1.57943e-07
3.18897e-06
1.55633e-07
3.11226e-06
1.53446e-07
3.03664e-06
1.51355e-07
2.96213e-06
1.49107e-07
2.88876e-06
1.46613e-07
2.81651e-06
1.4411e-07
2.74542e-06
1.42149e-07
2.67539e-06
1.40276e-07
2.60637e-06
1.38218e-07
2.53855e-06
1.35881e-07
2.4719e-06
1.3333e-07
2.4063e-06
1.30946e-07
2.34171e-06
1.29131e-07
2.27819e-06
1.27202e-07
2.21574e-06
1.25193e-07
2.15432e-06
1.22724e-07
2.09387e-06
1.20559e-07
2.03432e-06
1.19068e-07
1.97584e-06
1.17151e-07
1.91831e-06
1.15201e-07
1.86171e-06
1.13105e-07
1.80605e-06
1.11175e-07
1.75131e-06
1.09662e-07
1.69753e-06
1.07829e-07
1.64453e-06
1.06002e-07
1.59221e-06
1.04296e-07
1.54073e-06
1.02772e-07
1.49032e-06
1.00994e-07
1.44076e-06
9.93217e-08
1.39188e-06
9.78599e-08
1.34382e-06
9.60346e-08
1.29644e-06
9.4594e-08
1.24978e-06
9.33056e-08
1.20401e-06
9.17317e-08
1.15894e-06
9.03261e-08
1.11459e-06
8.88425e-08
1.071e-06
8.71482e-08
1.02814e-06
8.56893e-08
9.85985e-07
8.43401e-08
9.44447e-07
8.30621e-08
9.03587e-07
8.15875e-08
8.63377e-07
8.02508e-08
8.23843e-07
7.90483e-08
7.85066e-07
7.77148e-08
7.46882e-07
7.6536e-08
7.09264e-07
7.52876e-08
6.72268e-07
7.38641e-08
6.35906e-07
7.25689e-08
6.00148e-07
7.14359e-08
5.64925e-07
7.04067e-08
5.30213e-07
6.9399e-08
4.96213e-07
6.80887e-08
4.62794e-07
6.69206e-08
4.29925e-07
6.57268e-08
3.97639e-07
6.45446e-08
3.65943e-07
6.35466e-08
3.34811e-07
6.24038e-08
3.04246e-07
6.10441e-08
2.74166e-07
5.99186e-08
2.44634e-07
5.91026e-08
2.15724e-07
5.78395e-08
1.87431e-07
5.65776e-08
1.59643e-07
5.56516e-08
1.32479e-07
5.45173e-08
1.05743e-07
5.34676e-08
7.96863e-08
5.21411e-08
5.40675e-08
5.1135e-08
2.91396e-08
4.98514e-08
4.58029e-09
4.90525e-08
-1.92896e-08
4.78929e-08
-4.28642e-08
4.723e-08
-6.56344e-08
4.58644e-08
-8.82412e-08
4.5416e-08
-1.10069e-07
4.39079e-08
-1.31764e-07
4.35221e-08
-1.53529e-07
4.31278e-08
-1.74675e-07
4.20916e-08
-1.95855e-07
4.15668e-08
-2.15414e-07
3.92389e-08
-2.34846e-07
3.89872e-08
-2.52093e-07
3.59618e-08
-2.69435e-07
3.52236e-08
-2.88929e-07
3.69649e-08
-3.07674e-07
3.45193e-08
-3.25294e-07
3.27661e-08
-3.41315e-07
3.32818e-08
-3.452e-07
1.91828e-08
-3.50911e-07
2.04911e-08
-3.74412e-07
3.88309e-08
-3.97162e-07
2.63317e-08
-4.36205e-07
4.34551e-08
-4.82686e-07
6.67855e-08
-5.64689e-07
9.07218e-08
-6.39559e-07
1.00584e-07
-6.78384e-07
8.24483e-08
-7.01474e-07
1.00754e-07
-7.10916e-07
8.65242e-08
-7.32167e-07
6.385e-08
-7.48916e-07
5.61355e-08
-7.70122e-07
4.80219e-08
-7.88334e-07
4.19376e-08
-8.07628e-07
3.85722e-08
-8.23706e-07
3.47198e-08
-8.38438e-07
3.09503e-08
-8.44174e-07
2.05779e-08
-8.50409e-07
1.81396e-08
-8.67175e-07
2.85997e-08
-8.8325e-07
1.91812e-08
-9.08052e-07
2.79519e-08
-9.37075e-07
4.14072e-08
-9.86011e-07
5.37537e-08
-1.03057e-06
5.88905e-08
-1.05137e-06
4.62481e-08
-1.06301e-06
5.61197e-08
-1.06583e-06
4.64237e-08
-1.07763e-06
3.44661e-08
-1.08334e-06
2.62952e-08
-1.09268e-06
2.33982e-08
-1.09317e-06
1.16102e-08
-1.09795e-06
1.5063e-08
-1.10308e-06
1.21328e-08
-1.11233e-06
1.53021e-08
-1.12117e-06
9.55104e-09
-1.13077e-06
8.45067e-09
-1.13668e-06
8.85887e-09
-1.10327e-06
-3.43088e-08
-1.07138e-06
-3.09913e-08
-1.08243e-06
1.3902e-08
-1.0968e-06
-1.89975e-08
-1.20133e-06
7.26696e-08
-1.32826e-06
1.34855e-07
-1.66456e-06
3.14359e-07
-1.9821e-06
3.89619e-07
-2.20008e-06
3.25148e-07
-2.30921e-06
4.17691e-07
-2.31223e-06
3.16178e-07
-2.33809e-06
2.3651e-07
-2.37745e-06
1.91255e-07
-2.42236e-06
1.52943e-07
-2.46689e-06
1.25977e-07
-2.50909e-06
1.05769e-07
-2.54798e-06
9.03428e-08
-2.58306e-06
7.79123e-08
-2.61445e-06
6.78179e-08
-2.64254e-06
5.96402e-08
-2.66773e-06
5.2887e-08
-2.69031e-06
4.70875e-08
-2.71059e-06
4.20658e-08
-2.72887e-06
3.77702e-08
-2.74536e-06
3.40808e-08
-2.7602e-06
3.08117e-08
-2.77351e-06
2.78155e-08
-2.78535e-06
2.49637e-08
-2.79601e-06
2.24477e-08
-2.80556e-06
2.01311e-08
-2.81414e-06
1.80755e-08
-2.82184e-06
1.62601e-08
-2.82876e-06
1.46193e-08
-2.83495e-06
1.30829e-08
-2.84037e-06
1.15731e-08
-2.84517e-06
1.01107e-08
-2.84928e-06
8.66444e-09
-2.85256e-06
7.1485e-09
-2.85517e-06
5.72219e-09
-2.85711e-06
4.30499e-09
-2.85841e-06
2.89377e-09
-2.85907e-06
1.47133e-09
-2.85914e-06
7.66342e-11
-2.85864e-06
-1.247e-09
-2.85761e-06
-2.45981e-09
-2.85606e-06
-3.57502e-09
-2.85402e-06
-4.57847e-09
-2.85124e-06
-5.58754e-09
-2.84824e-06
-6.25819e-09
-2.84496e-06
-6.87725e-09
-2.84136e-06
-7.43469e-09
-2.8375e-06
-7.87172e-09
-2.83345e-06
-8.1953e-09
-2.82921e-06
-8.4614e-09
-2.82477e-06
-8.74852e-09
-2.82008e-06
-9.12203e-09
-2.81511e-06
-9.60329e-09
-2.80985e-06
-1.01731e-08
-2.80432e-06
-1.08064e-08
-2.7985e-06
-1.14982e-08
-2.79236e-06
-1.22414e-08
-2.78589e-06
-1.29638e-08
-2.77917e-06
-1.35104e-08
-2.77231e-06
-1.37155e-08
-2.76545e-06
-1.36135e-08
-2.75856e-06
-1.3523e-08
-2.75148e-06
-1.38236e-08
-2.74413e-06
-1.45404e-08
-2.73667e-06
-1.51947e-08
-2.72927e-06
-1.52588e-08
-2.72213e-06
-1.46033e-08
-2.71528e-06
-1.38075e-08
-2.70776e-06
-1.41378e-08
-2.69972e-06
-1.51829e-08
-2.6917e-06
-1.591e-08
-2.68408e-06
-1.559e-08
-2.67676e-06
-1.47708e-08
-2.66885e-06
-1.49676e-08
-2.66021e-06
-1.63773e-08
-2.65167e-06
-1.7253e-08
-2.64359e-06
-1.69277e-08
-2.63548e-06
-1.65403e-08
-2.6266e-06
-1.74615e-08
-2.61792e-06
-1.82197e-08
-2.6097e-06
-1.78204e-08
-2.60176e-06
-1.66423e-08
-2.59358e-06
-1.63286e-08
-2.5852e-06
-1.6612e-08
-2.57602e-06
-1.70031e-08
-2.56653e-06
-1.65243e-08
-1.01232e-08
1.41177e-05
-9.52434e-05
1.88759e-06
1.87553e-05
-7.96309e-06
1.80904e-05
-1.4835e-05
1.52764e-05
-2.00652e-05
1.32957e-05
-2.4297e-05
1.18612e-05
-2.79131e-05
1.07416e-05
-3.11274e-05
9.84562e-06
-3.40573e-05
9.15496e-06
-3.67895e-05
8.56244e-06
-3.939e-05
8.06516e-06
-4.18981e-05
7.61003e-06
-4.43292e-05
7.24645e-06
-4.66789e-05
6.94708e-06
-4.89162e-05
6.79595e-06
-5.1e-05
6.69292e-06
-5.29608e-05
6.58793e-06
-5.48951e-05
6.32696e-06
-5.68771e-05
6.00517e-06
-5.89581e-05
5.81351e-06
-6.10171e-05
5.7485e-06
-6.29742e-05
5.73076e-06
-6.47671e-05
5.60985e-06
-6.64115e-05
5.41887e-06
-6.79785e-05
5.33193e-06
-6.96174e-05
5.50221e-06
-7.14101e-05
5.72622e-06
-7.33826e-05
5.70847e-06
-7.53328e-05
5.32208e-06
-7.6991e-05
4.75861e-06
-7.83271e-05
4.44755e-06
-7.95616e-05
4.41571e-06
-8.09701e-05
4.51687e-06
-8.25923e-05
4.44772e-06
-8.41794e-05
4.19837e-06
-8.55962e-05
3.99641e-06
-8.67638e-05
4.02827e-06
-8.77857e-05
4.15607e-06
-8.89597e-05
4.19979e-06
-9.02536e-05
3.88079e-06
-9.16109e-05
3.39319e-06
-9.29264e-05
3.1204e-06
-9.41127e-05
3.12891e-06
-9.51776e-05
3.31912e-06
-9.61883e-05
3.44513e-06
-9.71833e-05
3.36029e-06
-9.82878e-05
3.12904e-06
-9.94029e-05
2.74515e-06
-0.000100429
2.38549e-06
-0.00010125
2.15567e-06
-0.000101931
2.0707e-06
-0.000102558
1.88305e-06
-0.000103141
1.49835e-06
-0.000103629
1.16466e-06
-0.000104036
1.11229e-06
-0.000104357
1.19371e-06
-0.000104523
1.15304e-06
-0.000104585
9.18659e-07
-0.000104606
4.04983e-07
-0.000104757
1.89482e-07
-0.000104957
1.92844e-07
-0.000105131
2.33662e-07
-0.000105173
1.03538e-07
-0.000104972
-5.44444e-07
-0.0001046
-1.55937e-06
-0.00010436
-2.35273e-06
-0.000104158
-2.82349e-06
-0.000103757
-3.35834e-06
-0.000103148
-3.99892e-06
-0.0001025
-4.65746e-06
-0.000102123
-5.42662e-06
-0.000101938
-6.52249e-06
-0.000101867
-7.89467e-06
-0.000101677
-9.23558e-06
-0.000101037
-1.05749e-05
-0.000100007
-1.19616e-05