/*--------------------------------*- C++ -*----------------------------------*\
| =========                 |                                                 |
| \\      /  F ield         | OpenFOAM: The Open Source CFD Toolbox           |
|  \\    /   O peration     | Version:  v2006                                 |
|   \\  /    A nd           | Website:  www.openfoam.com                      |
|    \\/     M anipulation  |                                                 |
\*---------------------------------------------------------------------------*/
FoamFile
{
    version     2.0;
    format      ascii;
    class       volScalarField;
    location    "4";
    object      k;
}
// * * * * * * * * * * * * * * * * * * * * * * * * * * * * * * * * * * * * * //

dimensions      [0 2 -2 0 0 0 0];


internalField   nonuniform List<scalar> 
33000
(
5.1427e-08
6.9105e-08
7.29341e-08
7.60083e-08
7.86608e-08
8.09025e-08
8.27545e-08
8.4248e-08
8.54203e-08
8.63191e-08
8.70045e-08
8.75416e-08
8.79907e-08
8.83941e-08
8.87686e-08
8.9108e-08
8.93987e-08
8.96386e-08
8.98493e-08
9.00687e-08
9.03316e-08
9.0652e-08
9.10165e-08
9.13923e-08
9.17432e-08
9.20435e-08
9.22843e-08
9.24733e-08
9.26288e-08
9.27678e-08
9.28983e-08
9.30188e-08
9.31285e-08
9.32338e-08
9.33427e-08
9.3448e-08
9.35155e-08
9.34944e-08
9.33492e-08
9.30915e-08
9.27783e-08
9.24778e-08
9.22275e-08
9.20096e-08
9.17638e-08
9.14305e-08
9.09938e-08
9.04899e-08
8.99808e-08
8.9517e-08
8.91114e-08
8.87454e-08
8.84098e-08
8.81422e-08
8.79978e-08
8.79517e-08
8.78337e-08
8.74426e-08
8.67015e-08
8.56601e-08
8.44557e-08
8.32706e-08
8.18527e-08
7.98944e-08
7.73508e-08
7.45228e-08
7.17611e-08
6.9146e-08
6.66145e-08
6.41069e-08
6.16678e-08
5.94997e-08
5.7816e-08
5.68769e-08
5.6828e-08
5.75141e-08
5.86947e-08
6.06127e-08
6.41117e-08
6.72695e-08
6.87404e-08
6.76384e-08
6.64183e-08
6.53856e-08
6.4367e-08
6.34193e-08
6.30989e-08
6.33698e-08
6.34602e-08
6.28943e-08
6.21276e-08
6.07686e-08
5.90805e-08
5.72966e-08
5.50276e-08
5.25147e-08
5.00247e-08
4.82626e-08
4.74963e-08
4.84898e-08
4.92317e-08
4.85598e-08
4.75516e-08
4.69881e-08
4.68467e-08
4.68353e-08
4.66591e-08
4.62723e-08
4.58088e-08
4.53666e-08
4.49089e-08
4.43742e-08
4.36377e-08
4.26132e-08
4.14347e-08
4.03742e-08
3.97901e-08
4.04559e-08
4.13712e-08
4.15067e-08
4.14052e-08
4.1329e-08
4.13493e-08
4.14466e-08
4.1552e-08
4.1625e-08
4.16599e-08
4.16771e-08
4.16933e-08
4.17081e-08
4.172e-08
4.1729e-08
4.17262e-08
4.1705e-08
4.16733e-08
4.16397e-08
4.16098e-08
4.15787e-08
4.15448e-08
4.15108e-08
4.14792e-08
4.14365e-08
4.13754e-08
4.13092e-08
4.12521e-08
4.11923e-08
4.11205e-08
4.10398e-08
4.09583e-08
4.08858e-08
4.08184e-08
4.07424e-08
4.06516e-08
4.05558e-08
4.04716e-08
4.04012e-08
4.03349e-08
4.02541e-08
4.0163e-08
4.00829e-08
4.00167e-08
3.99585e-08
3.98857e-08
3.98078e-08
3.97436e-08
3.96906e-08
3.96322e-08
3.95557e-08
3.94848e-08
3.94315e-08
3.93841e-08
3.93249e-08
3.92569e-08
3.9201e-08
3.91597e-08
3.9122e-08
3.90757e-08
3.90295e-08
3.89888e-08
3.89577e-08
3.8934e-08
3.89088e-08
3.88812e-08
3.8854e-08
3.88384e-08
3.8833e-08
3.88146e-08
3.87871e-08
3.87724e-08
3.87651e-08
3.87522e-08
3.87405e-08
3.87674e-08
3.88365e-08
3.89476e-08
3.90948e-08
3.92786e-08
3.95019e-08
3.9743e-08
3.99611e-08
4.01416e-08
4.02891e-08
4.04089e-08
4.04944e-08
4.05397e-08
4.05455e-08
4.05141e-08
4.04577e-08
4.0402e-08
4.03438e-08
4.02766e-08
4.02013e-08
4.01239e-08
4.00464e-08
3.99632e-08
3.98717e-08
3.97755e-08
3.96757e-08
3.95749e-08
3.94744e-08
3.93679e-08
3.92529e-08
3.91327e-08
3.90105e-08
3.88878e-08
3.87637e-08
3.86335e-08
3.8498e-08
3.8359e-08
3.82165e-08
3.8071e-08
3.7925e-08
3.77761e-08
3.76221e-08
3.74644e-08
3.7304e-08
3.71416e-08
3.69773e-08
3.68099e-08
3.66398e-08
3.64675e-08
3.62934e-08
3.61167e-08
3.59376e-08
3.57565e-08
3.55737e-08
3.53903e-08
3.52056e-08
3.5019e-08
3.48314e-08
3.46429e-08
3.44534e-08
3.42627e-08
3.40711e-08
3.38789e-08
3.36859e-08
3.34917e-08
3.32964e-08
3.31008e-08
3.29046e-08
3.27071e-08
3.25082e-08
3.2309e-08
3.21098e-08
3.191e-08
3.17098e-08
3.1509e-08
3.13074e-08
3.11054e-08
3.09033e-08
3.07016e-08
3.04995e-08
3.02971e-08
3.0094e-08
2.98909e-08
2.96878e-08
2.94846e-08
2.92814e-08
2.90783e-08
2.88758e-08
2.86741e-08
2.84723e-08
2.82703e-08
2.80681e-08
2.78666e-08
2.76655e-08
2.74646e-08
2.72638e-08
2.7063e-08
2.68626e-08
2.66627e-08
2.64639e-08
2.62662e-08
2.60696e-08
2.58737e-08
2.56795e-08
2.54865e-08
2.52956e-08
2.51067e-08
2.49192e-08
2.47336e-08
2.45499e-08
2.43685e-08
2.41894e-08
2.40123e-08
2.38374e-08
2.36639e-08
2.34933e-08
2.3325e-08
2.31583e-08
2.29934e-08
2.28299e-08
2.26685e-08
2.25098e-08
2.23541e-08
2.22007e-08
2.20501e-08
2.19022e-08
2.17569e-08
2.16134e-08
2.14719e-08
2.13319e-08
2.11942e-08
2.1058e-08
2.0923e-08
2.07892e-08
2.06561e-08
2.05245e-08
2.03936e-08
2.02632e-08
2.01333e-08
2.00035e-08
1.98739e-08
1.97442e-08
1.96144e-08
1.94844e-08
1.9354e-08
1.92232e-08
1.9092e-08
1.89617e-08
1.88331e-08
1.87062e-08
1.85809e-08
1.84569e-08
1.83342e-08
1.82126e-08
1.80919e-08
1.79721e-08
1.7853e-08
1.77346e-08
1.76168e-08
1.74996e-08
1.73832e-08
1.72673e-08
1.7152e-08
1.70372e-08
1.69231e-08
1.68095e-08
1.66964e-08
1.65836e-08
1.64714e-08
1.63598e-08
1.62486e-08
1.61381e-08
1.60283e-08
1.59191e-08
1.58107e-08
1.57033e-08
1.55964e-08
1.54904e-08
1.5385e-08
1.52802e-08
1.51763e-08
1.50732e-08
1.49711e-08
1.48697e-08
1.47695e-08
1.46705e-08
1.45725e-08
1.44757e-08
1.43799e-08
1.4285e-08
1.41913e-08
1.4099e-08
1.40081e-08
1.39187e-08
1.38306e-08
1.37439e-08
1.36584e-08
1.35743e-08
1.34917e-08
1.34103e-08
1.33298e-08
1.3251e-08
1.31741e-08
1.3098e-08
1.30238e-08
1.29509e-08
1.28794e-08
1.28089e-08
1.27398e-08
1.26717e-08
1.26053e-08
1.25401e-08
1.24769e-08
1.24144e-08
1.2353e-08
1.22921e-08
1.22313e-08
1.2172e-08
1.21127e-08
1.20546e-08
1.19962e-08
1.19381e-08
1.1882e-08
1.18231e-08
1.17659e-08
1.17078e-08
1.16459e-08
1.15889e-08
1.154e-08
1.14764e-08
1.14274e-08
1.13663e-08
1.12655e-08
1.12169e-08
1.11987e-08
1.10997e-08
1.1163e-08
1.1156e-08
1.14048e-08
1.13749e-08
1.14482e-08
1.14192e-08
1.14263e-08
1.13896e-08
1.13737e-08
1.13364e-08
1.13101e-08
1.12676e-08
1.12314e-08
1.11875e-08
1.11227e-08
1.1081e-08
1.10511e-08
1.09837e-08
1.09877e-08
1.09583e-08
1.1037e-08
1.10011e-08
1.09994e-08
1.0967e-08
1.0939e-08
1.09046e-08
1.08717e-08
1.08331e-08
1.07942e-08
1.07361e-08
1.06916e-08
1.0662e-08
1.05936e-08
1.0579e-08
1.05152e-08
1.03192e-08
1.0289e-08
1.03238e-08
1.01336e-08
1.06288e-08
1.0765e-08
1.24897e-08
1.2614e-08
1.32236e-08
1.34885e-08
1.37184e-08
1.38799e-08
1.39999e-08
1.40788e-08
1.41232e-08
1.41496e-08
1.41653e-08
1.41728e-08
1.41738e-08
1.41695e-08
1.41611e-08
1.41494e-08
1.41348e-08
1.41176e-08
1.40979e-08
1.40759e-08
1.4052e-08
1.40264e-08
1.39994e-08
1.39713e-08
1.39423e-08
1.39123e-08
1.38812e-08
1.38491e-08
1.3816e-08
1.37817e-08
1.37461e-08
1.37092e-08
1.36707e-08
1.36308e-08
1.35895e-08
1.35471e-08
1.3504e-08
1.34605e-08
1.34167e-08
1.33727e-08
1.33288e-08
1.32851e-08
1.32417e-08
1.31987e-08
1.31561e-08
1.31138e-08
1.30716e-08
1.30293e-08
1.29867e-08
1.29438e-08
1.29005e-08
1.28567e-08
1.28124e-08
1.27681e-08
1.27241e-08
1.26806e-08
1.26375e-08
1.25943e-08
1.25504e-08
1.25061e-08
1.2462e-08
1.24191e-08
1.23772e-08
1.23354e-08
1.22927e-08
1.22493e-08
1.22065e-08
1.21647e-08
1.21231e-08
1.20801e-08
1.20361e-08
1.19922e-08
1.19489e-08
1.19052e-08
1.18606e-08
1.1816e-08
1.1776e-08
1.17323e-08
1.15966e-08
1.19053e-08
1.07395e-08
1.24107e-08
1.62334e-08
1.79007e-08
1.90242e-08
1.98095e-08
2.05208e-08
2.10594e-08
2.14514e-08
2.17012e-08
2.17552e-08
2.16387e-08
2.14053e-08
2.1207e-08
2.11574e-08
2.13458e-08
2.16249e-08
2.17189e-08
2.13825e-08
2.07312e-08
2.01682e-08
1.99791e-08
2.01362e-08
2.03685e-08
2.05107e-08
2.05553e-08
2.05059e-08
2.02608e-08
1.97552e-08
1.92695e-08
1.90304e-08
1.90444e-08
1.89663e-08
1.86096e-08
1.81046e-08
1.77956e-08
1.78673e-08
1.8195e-08
1.83601e-08
1.8054e-08
1.72933e-08
1.6502e-08
1.61375e-08
1.61773e-08
1.63766e-08
1.64781e-08
1.62771e-08
1.58476e-08
1.53937e-08
1.5099e-08
1.50081e-08
1.50458e-08
1.50169e-08
1.48913e-08
1.48123e-08
1.49317e-08
1.5202e-08
1.54879e-08
1.56393e-08
1.56588e-08
1.5689e-08
1.59572e-08
1.63394e-08
1.68299e-08
1.74129e-08
1.8063e-08
1.87958e-08
1.96676e-08
2.07028e-08
2.18592e-08
2.30368e-08
2.40706e-08
2.47543e-08
2.51537e-08
2.53949e-08
2.55333e-08
2.55727e-08
2.55597e-08
2.56433e-08
2.56894e-08
2.54078e-08
2.45449e-08
2.35242e-08
2.03524e-08
1.73334e-08
1.44984e-08
1.22336e-08
1.17492e-08
1.15732e-08
1.15452e-08
1.16365e-08
1.18936e-08
1.23196e-08
1.29303e-08
1.37245e-08
1.45579e-08
1.52399e-08
1.5548e-08
1.53079e-08
1.4575e-08
1.36401e-08
1.2747e-08
1.22597e-08
1.21627e-08
1.18831e-08
1.18744e-08
1.12898e-08
1.08464e-08
1.08417e-08
1.09141e-08
1.0918e-08
1.08691e-08
1.09488e-08
1.10841e-08
1.13104e-08
1.1534e-08
1.16402e-08
1.15396e-08
1.12849e-08
1.10453e-08
1.10232e-08
1.10662e-08
1.1006e-08
1.11313e-08
1.09526e-08
1.07631e-08
1.07541e-08
1.07145e-08
1.06791e-08
1.06793e-08
1.06499e-08
1.06191e-08
1.06136e-08
1.06013e-08
1.05891e-08
1.05827e-08
1.05799e-08
1.05794e-08
1.05762e-08
1.05734e-08
1.05715e-08
1.05728e-08
1.05747e-08
1.05742e-08
1.05756e-08
1.0579e-08
1.05812e-08
1.05829e-08
1.05871e-08
1.05945e-08
1.06026e-08
1.06088e-08
1.06111e-08
1.06086e-08
1.06068e-08
1.06119e-08
1.06208e-08
1.0625e-08
1.06228e-08
1.0621e-08
1.06256e-08
1.06323e-08
1.06338e-08
1.06306e-08
1.06314e-08
1.06383e-08
1.06433e-08
1.06415e-08
1.0639e-08
1.0643e-08
1.06507e-08
1.06525e-08
1.06468e-08
1.06444e-08
1.06505e-08
1.06567e-08
1.06567e-08
1.06534e-08
1.06517e-08
1.06529e-08
1.06554e-08
1.06578e-08
1.06574e-08
1.06557e-08
1.06567e-08
1.06596e-08
1.06591e-08
1.06528e-08
1.06485e-08
1.06507e-08
1.06544e-08
1.0654e-08
1.06512e-08
1.06501e-08
1.06495e-08
1.06471e-08
1.06431e-08
1.06406e-08
1.06407e-08
1.06386e-08
1.06315e-08
1.06241e-08
1.06215e-08
1.06234e-08
1.06229e-08
1.0617e-08
1.06075e-08
1.05996e-08
1.05978e-08
1.05977e-08
1.05933e-08
1.0585e-08
1.05794e-08
1.05766e-08
1.05731e-08
1.0567e-08
1.05575e-08
1.05499e-08
1.05465e-08
1.05454e-08
1.05445e-08
1.05384e-08
1.05276e-08
1.05186e-08
1.05151e-08
1.05146e-08
1.05125e-08
1.05089e-08
1.05048e-08
1.04985e-08
1.04929e-08
1.04926e-08
1.04949e-08
1.04954e-08
1.04934e-08
1.04884e-08
1.04861e-08
1.04897e-08
1.04959e-08
1.04994e-08
1.0501e-08
1.0503e-08
1.05056e-08
1.05082e-08
1.05119e-08
1.05154e-08
1.05157e-08
1.05214e-08
1.05284e-08
1.05277e-08
1.05248e-08
1.05253e-08
1.05275e-08
1.05293e-08
1.05272e-08
1.05264e-08
1.05262e-08
1.05233e-08
1.05196e-08
1.05191e-08
1.05179e-08
1.05136e-08
1.05067e-08
1.05025e-08
1.05011e-08
1.04996e-08
1.04963e-08
1.04919e-08
1.04839e-08
1.04752e-08
1.04699e-08
1.04672e-08
1.0465e-08
1.04608e-08
1.04547e-08
1.04482e-08
1.04413e-08
1.04356e-08
1.04304e-08
1.04249e-08
1.04183e-08
1.04141e-08
1.04111e-08
1.04044e-08
1.03961e-08
1.03887e-08
1.03831e-08
1.03787e-08
1.03748e-08
1.0369e-08
1.03627e-08
1.03553e-08
1.03482e-08
1.03437e-08
1.03396e-08
1.03337e-08
1.03279e-08
1.0322e-08
1.03159e-08
1.03106e-08
1.03051e-08
1.02996e-08
1.02938e-08
1.02876e-08
1.02825e-08
1.02768e-08
1.02712e-08
1.02649e-08
1.02584e-08
1.0254e-08
1.02485e-08
1.02426e-08
1.02364e-08
1.02305e-08
1.02249e-08
1.02193e-08
1.02136e-08
1.02076e-08
1.0202e-08
1.01967e-08
1.01911e-08
1.01856e-08
1.01796e-08
1.0174e-08
1.01694e-08
1.0164e-08
1.01583e-08
1.01525e-08
1.01478e-08
1.01432e-08
1.01382e-08
1.01333e-08
1.01284e-08
1.01235e-08
1.01189e-08
1.01144e-08
1.01101e-08
1.0106e-08
1.0102e-08
1.00979e-08
1.00939e-08
1.00904e-08
1.0087e-08
1.00837e-08
1.00804e-08
1.0077e-08
1.00738e-08
1.00711e-08
1.00684e-08
1.00658e-08
1.00631e-08
1.00605e-08
1.00585e-08
1.00563e-08
1.00542e-08
1.0052e-08
1.005e-08
1.00483e-08
1.00466e-08
1.00448e-08
1.00431e-08
1.00416e-08
1.00401e-08
1.00387e-08
1.00373e-08
1.00358e-08
1.00345e-08
1.00333e-08
1.00321e-08
1.00309e-08
1.00298e-08
1.00286e-08
1.00275e-08
1.00264e-08
1.00254e-08
1.00243e-08
1.00233e-08
1.00223e-08
1.00214e-08
1.00204e-08
1.00195e-08
1.00185e-08
1.00176e-08
1.00166e-08
1.00158e-08
1.00149e-08
1.0014e-08
1.00131e-08
1.00122e-08
1.00114e-08
1.00106e-08
1.00097e-08
1.00088e-08
1.0008e-08
1.00072e-08
1.00064e-08
1.00055e-08
1.00048e-08
1.0004e-08
1.00032e-08
1.00024e-08
1.00017e-08
1.00009e-08
1.00002e-08
9.99945e-09
9.99877e-09
9.99802e-09
9.99731e-09
9.99652e-09
9.99576e-09
9.99495e-09
9.99424e-09
9.99356e-09
9.99303e-09
9.99245e-09
9.99218e-09
9.99123e-09
9.99021e-09
9.9894e-09
9.99021e-09
9.99017e-09
9.99516e-09
9.99308e-09
9.99537e-09
9.99269e-09
9.99391e-09
9.99736e-09
1.00218e-08
1.00203e-08
9.99992e-09
9.99986e-09
1.00062e-08
1e-08
9.98943e-09
9.987e-09
9.98291e-09
9.98019e-09
9.97954e-09
9.9794e-09
9.98185e-09
9.98166e-09
9.98397e-09
9.98245e-09
9.98201e-09
9.98225e-09
9.99031e-09
9.99001e-09
9.98424e-09
9.98497e-09
9.98743e-09
9.984e-09
9.97863e-09
9.97846e-09
9.98063e-09
9.97829e-09
9.97454e-09
9.97665e-09
9.97244e-09
9.97455e-09
9.97992e-09
1.00119e-08
1.00089e-08
1.00341e-08
1.00317e-08
1.00742e-08
1.00788e-08
1.0106e-08
1.01188e-08
1.01117e-08
1.00998e-08
1.01403e-08
1.01055e-08
1.00622e-08
1.00403e-08
1.00232e-08
1.00113e-08
1.00025e-08
9.99556e-09
9.99007e-09
9.98574e-09
9.98236e-09
9.97975e-09
9.97768e-09
9.976e-09
9.97467e-09
9.9737e-09
9.97304e-09
9.9726e-09
9.97229e-09
9.97206e-09
9.97188e-09
9.97177e-09
9.97172e-09
9.97177e-09
9.9719e-09
9.9721e-09
9.97243e-09
9.97286e-09
9.9733e-09
9.97374e-09
9.97421e-09
9.97467e-09
9.9751e-09
9.97549e-09
9.97586e-09
9.97621e-09
9.97655e-09
9.97685e-09
9.97702e-09
9.9771e-09
9.97712e-09
9.97704e-09
9.97689e-09
9.97673e-09
9.97663e-09
9.9766e-09
9.97663e-09
9.97669e-09
9.97678e-09
9.9769e-09
9.97707e-09
9.97724e-09
9.9773e-09
9.97716e-09
9.97687e-09
9.97662e-09
9.97657e-09
9.97665e-09
9.97652e-09
9.97606e-09
9.97541e-09
9.97496e-09
9.97525e-09
9.97577e-09
9.97567e-09
9.97496e-09
9.97442e-09
9.97479e-09
9.9756e-09
9.97549e-09
9.97487e-09
9.9749e-09
9.97553e-09
9.97522e-09
9.97435e-09
9.97362e-09
9.97342e-09
9.99084e-09
9.99826e-09
1.0042e-08
1.00001e-08
1.02997e-08
1.09754e-08
1.13413e-08
1.15925e-08
1.17681e-08
1.19114e-08
1.20119e-08
1.2074e-08
1.21052e-08
1.20961e-08
1.20548e-08
1.19951e-08
1.1947e-08
1.19284e-08
1.19516e-08
1.19853e-08
1.19816e-08
1.18991e-08
1.17706e-08
1.16687e-08
1.16315e-08
1.16429e-08
1.16597e-08
1.16615e-08
1.16575e-08
1.16535e-08
1.16242e-08
1.15425e-08
1.14381e-08
1.13503e-08
1.13044e-08
1.12714e-08
1.12217e-08
1.11537e-08
1.1102e-08
1.10885e-08
1.11084e-08
1.11181e-08
1.10736e-08
1.0974e-08
1.08698e-08
1.08104e-08
1.08003e-08
1.08153e-08
1.08213e-08
1.07966e-08
1.07456e-08
1.06884e-08
1.06485e-08
1.06319e-08
1.0629e-08
1.06227e-08
1.0612e-08
1.06105e-08
1.06306e-08
1.06665e-08
1.07048e-08
1.07363e-08
1.07617e-08
1.08029e-08
1.08741e-08
1.09681e-08
1.10911e-08
1.12359e-08
1.14152e-08
1.16447e-08
1.19313e-08
1.2268e-08
1.26401e-08
1.30254e-08
1.33911e-08
1.3698e-08
1.39181e-08
1.40438e-08
1.40776e-08
1.40318e-08
1.39274e-08
1.37882e-08
1.36227e-08
1.34401e-08
1.3245e-08
1.30216e-08
1.27334e-08
1.23609e-08
1.19792e-08
1.14778e-08
1.09803e-08
1.05651e-08
1.02959e-08
1.01826e-08
1.01647e-08
1.01934e-08
1.026e-08
1.03721e-08
1.05277e-08
1.06989e-08
1.08384e-08
1.08803e-08
1.08031e-08
1.06485e-08
1.04748e-08
1.03313e-08
1.02337e-08
1.01674e-08
1.01282e-08
1.01063e-08
1.00858e-08
1.00837e-08
1.00838e-08
1.00717e-08
1.00608e-08
1.00628e-08
1.00662e-08
1.00752e-08
1.00881e-08
1.01002e-08
1.01052e-08
1.01006e-08
1.00899e-08
1.00787e-08
1.00699e-08
1.0065e-08
1.00681e-08
1.00653e-08
1.00595e-08
1.006e-08
1.00548e-08
1.00506e-08
1.00502e-08
1.00489e-08
1.00479e-08
1.00477e-08
1.00471e-08
1.00465e-08
1.00463e-08
1.00463e-08
1.00464e-08
1.00463e-08
1.00462e-08
1.00462e-08
1.00463e-08
1.00464e-08
1.00465e-08
1.00466e-08
1.00467e-08
1.00467e-08
1.00467e-08
1.00468e-08
1.00472e-08
1.00476e-08
1.00478e-08
1.00478e-08
1.00475e-08
1.00474e-08
1.00477e-08
1.00482e-08
1.00483e-08
1.00481e-08
1.0048e-08
1.00483e-08
1.00487e-08
1.00488e-08
1.00485e-08
1.00486e-08
1.0049e-08
1.00494e-08
1.00493e-08
1.00491e-08
1.00494e-08
1.00499e-08
1.005e-08
1.00496e-08
1.00494e-08
1.00498e-08
1.00502e-08
1.00502e-08
1.005e-08
1.00499e-08
1.005e-08
1.00501e-08
1.00502e-08
1.00501e-08
1.005e-08
1.00501e-08
1.00502e-08
1.00501e-08
1.00496e-08
1.00493e-08
1.00493e-08
1.00495e-08
1.00494e-08
1.00492e-08
1.0049e-08
1.00489e-08
1.00486e-08
1.00481e-08
1.00479e-08
1.00478e-08
1.00476e-08
1.00471e-08
1.00465e-08
1.00462e-08
1.00462e-08
1.00461e-08
1.00457e-08
1.0045e-08
1.00445e-08
1.00443e-08
1.00442e-08
1.00439e-08
1.00433e-08
1.0043e-08
1.00427e-08
1.00425e-08
1.0042e-08
1.00415e-08
1.0041e-08
1.00408e-08
1.00406e-08
1.00405e-08
1.00402e-08
1.00396e-08
1.00391e-08
1.00389e-08
1.00388e-08
1.00386e-08
1.00384e-08
1.00382e-08
1.00378e-08
1.00375e-08
1.00374e-08
1.00374e-08
1.00374e-08
1.00372e-08
1.00368e-08
1.00365e-08
1.00365e-08
1.00367e-08
1.00368e-08
1.00368e-08
1.00367e-08
1.00366e-08
1.00365e-08
1.00366e-08
1.00366e-08
1.00365e-08
1.00366e-08
1.00369e-08
1.00368e-08
1.00365e-08
1.00365e-08
1.00365e-08
1.00365e-08
1.00364e-08
1.00364e-08
1.00363e-08
1.00362e-08
1.0036e-08
1.0036e-08
1.0036e-08
1.00358e-08
1.00354e-08
1.00352e-08
1.00352e-08
1.00351e-08
1.0035e-08
1.00348e-08
1.00344e-08
1.0034e-08
1.00338e-08
1.00337e-08
1.00337e-08
1.00335e-08
1.00332e-08
1.0033e-08
1.00327e-08
1.00324e-08
1.00322e-08
1.0032e-08
1.00317e-08
1.00316e-08
1.00315e-08
1.00312e-08
1.00308e-08
1.00305e-08
1.00303e-08
1.00301e-08
1.00299e-08
1.00297e-08
1.00294e-08
1.00291e-08
1.00288e-08
1.00286e-08
1.00284e-08
1.00282e-08
1.00279e-08
1.00277e-08
1.00274e-08
1.00272e-08
1.0027e-08
1.00267e-08
1.00265e-08
1.00262e-08
1.0026e-08
1.00257e-08
1.00255e-08
1.00252e-08
1.0025e-08
1.00248e-08
1.00245e-08
1.00243e-08
1.0024e-08
1.00238e-08
1.00235e-08
1.00233e-08
1.00231e-08
1.00228e-08
1.00226e-08
1.00224e-08
1.00222e-08
1.00219e-08
1.00217e-08
1.00215e-08
1.00213e-08
1.00211e-08
1.00209e-08
1.00207e-08
1.00205e-08
1.00203e-08
1.00202e-08
1.002e-08
1.00198e-08
1.00197e-08
1.00195e-08
1.00193e-08
1.00192e-08
1.0019e-08
1.00189e-08
1.00188e-08
1.00187e-08
1.00185e-08
1.00184e-08
1.00183e-08
1.00182e-08
1.00181e-08
1.0018e-08
1.00179e-08
1.00178e-08
1.00177e-08
1.00176e-08
1.00175e-08
1.00174e-08
1.00173e-08
1.00172e-08
1.00171e-08
1.0017e-08
1.00169e-08
1.00169e-08
1.00168e-08
1.00167e-08
1.00166e-08
1.00166e-08
1.00165e-08
1.00164e-08
1.00163e-08
1.00163e-08
1.00162e-08
1.00161e-08
1.00161e-08
1.0016e-08
1.00159e-08
1.00159e-08
1.00158e-08
1.00157e-08
1.00157e-08
1.00156e-08
1.00156e-08
1.00155e-08
1.00154e-08
1.00154e-08
1.00153e-08
1.00152e-08
1.00152e-08
1.00151e-08
1.00151e-08
1.0015e-08
1.00149e-08
1.00149e-08
1.00148e-08
1.00147e-08
1.00147e-08
1.00146e-08
1.00145e-08
1.00145e-08
1.00144e-08
1.00144e-08
1.00143e-08
1.00142e-08
1.00142e-08
1.00141e-08
1.0014e-08
1.00139e-08
1.00139e-08
1.00138e-08
1.00137e-08
1.00136e-08
1.00135e-08
1.00135e-08
1.00134e-08
1.00133e-08
1.00132e-08
1.00133e-08
1.00132e-08
1.00132e-08
1.00131e-08
1.00135e-08
1.00132e-08
1.00134e-08
1.00136e-08
1.00139e-08
1.00138e-08
1.00137e-08
1.00133e-08
1.00119e-08
1.00122e-08
1.00134e-08
1.00135e-08
1.00136e-08
1.00135e-08
1.00135e-08
1.00134e-08
1.00132e-08
1.00128e-08
1.00125e-08
1.00124e-08
1.00128e-08
1.00122e-08
1.00126e-08
1.00125e-08
1.00124e-08
1.0012e-08
1.00114e-08
1.00115e-08
1.00122e-08
1.00122e-08
1.00122e-08
1.00121e-08
1.00122e-08
1.0012e-08
1.0012e-08
1.00118e-08
1.00115e-08
1.00113e-08
1.00116e-08
1.00111e-08
1.00112e-08
1.00123e-08
1.0012e-08
1.00119e-08
1.00118e-08
1.00143e-08
1.00147e-08
1.00167e-08
1.00164e-08
1.00148e-08
1.00178e-08
1.00186e-08
1.00173e-08
1.00183e-08
1.00163e-08
1.0013e-08
1.00111e-08
1.00101e-08
1.00093e-08
1.00086e-08
1.0008e-08
1.00075e-08
1.0007e-08
1.00065e-08
1.00061e-08
1.00058e-08
1.00055e-08
1.00052e-08
1.00051e-08
1.00051e-08
1.00053e-08
1.00055e-08
1.00057e-08
1.00058e-08
1.0006e-08
1.00061e-08
1.00063e-08
1.00064e-08
1.00066e-08
1.00068e-08
1.00071e-08
1.00073e-08
1.00075e-08
1.00077e-08
1.00078e-08
1.00078e-08
1.00078e-08
1.00079e-08
1.0008e-08
1.00081e-08
1.00083e-08
1.00085e-08
1.00087e-08
1.00088e-08
1.00089e-08
1.00089e-08
1.00088e-08
1.00088e-08
1.00088e-08
1.00089e-08
1.00089e-08
1.00089e-08
1.00088e-08
1.00088e-08
1.00089e-08
1.0009e-08
1.00091e-08
1.00092e-08
1.00091e-08
1.0009e-08
1.00088e-08
1.00086e-08
1.00084e-08
1.00083e-08
1.00084e-08
1.00086e-08
1.00088e-08
1.00087e-08
1.00083e-08
1.00083e-08
1.00085e-08
1.0009e-08
1.00087e-08
1.00081e-08
1.00081e-08
1.00083e-08
1.00084e-08
1.00079e-08
1.0008e-08
1.00081e-08
1.00076e-08
1.00084e-08
1.00083e-08
1.00111e-08
1.00076e-08
1.01682e-08
1.02995e-08
1.03427e-08
1.03867e-08
1.04169e-08
1.04395e-08
1.04537e-08
1.04605e-08
1.04616e-08
1.04558e-08
1.0445e-08
1.04315e-08
1.04202e-08
1.04135e-08
1.04127e-08
1.04124e-08
1.04062e-08
1.03893e-08
1.03676e-08
1.03508e-08
1.03423e-08
1.03391e-08
1.03354e-08
1.03305e-08
1.03275e-08
1.03276e-08
1.03252e-08
1.03131e-08
1.02919e-08
1.0269e-08
1.02524e-08
1.02424e-08
1.0235e-08
1.02261e-08
1.02166e-08
1.02098e-08
1.02068e-08
1.02041e-08
1.01974e-08
1.01849e-08
1.01712e-08
1.01619e-08
1.01579e-08
1.01569e-08
1.01554e-08
1.01509e-08
1.0144e-08
1.01361e-08
1.01293e-08
1.01248e-08
1.01223e-08
1.01202e-08
1.01182e-08
1.01178e-08
1.012e-08
1.01242e-08
1.01289e-08
1.01337e-08
1.01393e-08
1.01484e-08
1.01617e-08
1.01792e-08
1.02016e-08
1.0231e-08
1.02704e-08
1.03232e-08
1.03913e-08
1.04755e-08
1.05764e-08
1.06937e-08
1.08231e-08
1.09544e-08
1.10741e-08
1.11697e-08
1.12327e-08
1.12607e-08
1.12562e-08
1.12272e-08
1.11804e-08
1.11221e-08
1.10567e-08
1.09887e-08
1.0923e-08
1.08652e-08
1.08138e-08
1.07595e-08
1.06899e-08
1.06121e-08
1.05231e-08
1.0399e-08
1.02563e-08
1.01488e-08
1.01065e-08
1.00877e-08
1.00857e-08
1.00936e-08
1.01043e-08
1.01149e-08
1.01191e-08
1.01146e-08
1.01025e-08
1.00869e-08
1.0073e-08
1.00629e-08
1.00572e-08
1.0055e-08
1.00543e-08
1.00539e-08
1.00529e-08
1.00494e-08
1.00451e-08
1.00418e-08
1.00391e-08
1.00371e-08
1.00357e-08
1.0035e-08
1.00347e-08
1.00346e-08
1.00347e-08
1.00348e-08
1.00347e-08
1.00348e-08
1.0035e-08
1.00355e-08
1.0036e-08
1.00362e-08
1.00355e-08
1.00343e-08
1.00334e-08
1.00325e-08
1.00317e-08
1.00312e-08
1.00307e-08
1.00303e-08
1.00301e-08
1.00299e-08
1.00298e-08
1.00297e-08
1.00297e-08
1.00297e-08
1.00296e-08
1.00296e-08
1.00295e-08
1.00294e-08
1.00294e-08
1.00293e-08
1.00292e-08
1.00292e-08
1.00291e-08
1.00291e-08
1.00291e-08
1.0029e-08
1.0029e-08
1.0029e-08
1.00289e-08
1.00289e-08
1.00289e-08
1.00288e-08
1.00288e-08
1.00288e-08
1.00287e-08
1.00287e-08
1.00286e-08
1.00286e-08
1.00285e-08
1.00285e-08
1.00284e-08
1.00284e-08
1.00283e-08
1.00283e-08
1.00282e-08
1.00281e-08
1.00281e-08
1.0028e-08
1.0028e-08
1.00279e-08
1.00279e-08
1.00278e-08
1.00278e-08
1.00277e-08
1.00277e-08
1.00276e-08
1.00276e-08
1.00275e-08
1.00275e-08
1.00274e-08
1.00274e-08
1.00273e-08
1.00272e-08
1.00272e-08
1.00271e-08
1.00271e-08
1.0027e-08
1.0027e-08
1.00269e-08
1.00268e-08
1.00267e-08
1.00266e-08
1.00266e-08
1.00265e-08
1.00264e-08
1.00263e-08
1.00262e-08
1.00262e-08
1.00261e-08
1.0026e-08
1.00259e-08
1.00258e-08
1.00258e-08
1.00257e-08
1.00256e-08
1.00255e-08
1.00254e-08
1.00253e-08
1.00253e-08
1.00252e-08
1.00251e-08
1.0025e-08
1.0025e-08
1.00249e-08
1.00248e-08
1.00248e-08
1.00247e-08
1.00246e-08
1.00246e-08
1.00245e-08
1.00244e-08
1.00244e-08
1.00243e-08
1.00242e-08
1.00241e-08
1.00241e-08
1.0024e-08
1.00239e-08
1.00239e-08
1.00238e-08
1.00237e-08
1.00236e-08
1.00236e-08
1.00235e-08
1.00235e-08
1.00233e-08
1.00232e-08
1.00232e-08
1.00231e-08
1.0023e-08
1.00229e-08
1.00228e-08
1.00228e-08
1.00226e-08
1.00225e-08
1.00225e-08
1.00225e-08
1.00224e-08
1.00223e-08
1.00223e-08
1.00222e-08
1.00221e-08
1.00221e-08
1.00221e-08
1.0022e-08
1.00219e-08
1.00218e-08
1.00218e-08
1.00217e-08
1.00217e-08
1.00217e-08
1.00216e-08
1.00215e-08
1.00215e-08
1.00214e-08
1.00214e-08
1.00213e-08
1.00212e-08
1.00212e-08
1.00211e-08
1.00211e-08
1.0021e-08
1.00209e-08
1.00209e-08
1.00208e-08
1.00207e-08
1.00207e-08
1.00206e-08
1.00206e-08
1.00205e-08
1.00204e-08
1.00204e-08
1.00203e-08
1.00202e-08
1.00202e-08
1.00201e-08
1.00201e-08
1.002e-08
1.00199e-08
1.00199e-08
1.00198e-08
1.00197e-08
1.00197e-08
1.00196e-08
1.00195e-08
1.00195e-08
1.00194e-08
1.00193e-08
1.00192e-08
1.00192e-08
1.00191e-08
1.0019e-08
1.0019e-08
1.00189e-08
1.00188e-08
1.00188e-08
1.00187e-08
1.00186e-08
1.00186e-08
1.00185e-08
1.00184e-08
1.00184e-08
1.00183e-08
1.00182e-08
1.00182e-08
1.00181e-08
1.0018e-08
1.0018e-08
1.00179e-08
1.00179e-08
1.00178e-08
1.00177e-08
1.00177e-08
1.00176e-08
1.00176e-08
1.00175e-08
1.00175e-08
1.00174e-08
1.00173e-08
1.00173e-08
1.00172e-08
1.00172e-08
1.00171e-08
1.00171e-08
1.0017e-08
1.00169e-08
1.00169e-08
1.00168e-08
1.00168e-08
1.00167e-08
1.00166e-08
1.00165e-08
1.00165e-08
1.00164e-08
1.00163e-08
1.00162e-08
1.00162e-08
1.00161e-08
1.0016e-08
1.0016e-08
1.00159e-08
1.00158e-08
1.00157e-08
1.00157e-08
1.00156e-08
1.00156e-08
1.00155e-08
1.00154e-08
1.00153e-08
1.00153e-08
1.00152e-08
1.00152e-08
1.00151e-08
1.0015e-08
1.0015e-08
1.00149e-08
1.00149e-08
1.00148e-08
1.00147e-08
1.00147e-08
1.00146e-08
1.00146e-08
1.00145e-08
1.00145e-08
1.00144e-08
1.00143e-08
1.00143e-08
1.00142e-08
1.00142e-08
1.00141e-08
1.0014e-08
1.0014e-08
1.00139e-08
1.00139e-08
1.00138e-08
1.00138e-08
1.00137e-08
1.00137e-08
1.00136e-08
1.00136e-08
1.00135e-08
1.00134e-08
1.00134e-08
1.00133e-08
1.00132e-08
1.00132e-08
1.00131e-08
1.0013e-08
1.0013e-08
1.00129e-08
1.00128e-08
1.00128e-08
1.00128e-08
1.00127e-08
1.00127e-08
1.00126e-08
1.0013e-08
1.00128e-08
1.0013e-08
1.00131e-08
1.00131e-08
1.0013e-08
1.0013e-08
1.00127e-08
1.00116e-08
1.00118e-08
1.00128e-08
1.00127e-08
1.00128e-08
1.00127e-08
1.00128e-08
1.00127e-08
1.00121e-08
1.00117e-08
1.00124e-08
1.00124e-08
1.00123e-08
1.00121e-08
1.0012e-08
1.0012e-08
1.00119e-08
1.00117e-08
1.00114e-08
1.00114e-08
1.00117e-08
1.00116e-08
1.00116e-08
1.00116e-08
1.00116e-08
1.00115e-08
1.00114e-08
1.00113e-08
1.0011e-08
1.0011e-08
1.00114e-08
1.00111e-08
1.0012e-08
1.00114e-08
1.00101e-08
1.0011e-08
1.00109e-08
1.00135e-08
1.00139e-08
1.00161e-08
1.00153e-08
1.00132e-08
1.00137e-08
1.00134e-08
1.00132e-08
1.00131e-08
1.00129e-08
1.00123e-08
1.0012e-08
1.00115e-08
1.00109e-08
1.00105e-08
1.00101e-08
1.00096e-08
1.00092e-08
1.00089e-08
1.00085e-08
1.00081e-08
1.00079e-08
1.00076e-08
1.00074e-08
1.00071e-08
1.00069e-08
1.00068e-08
1.00069e-08
1.00069e-08
1.00069e-08
1.0007e-08
1.0007e-08
1.0007e-08
1.0007e-08
1.0007e-08
1.00071e-08
1.00072e-08
1.00074e-08
1.00076e-08
1.00077e-08
1.00079e-08
1.00079e-08
1.00079e-08
1.00079e-08
1.00078e-08
1.00078e-08
1.00079e-08
1.0008e-08
1.00082e-08
1.00083e-08
1.00085e-08
1.00085e-08
1.00086e-08
1.00086e-08
1.00085e-08
1.00086e-08
1.00086e-08
1.00086e-08
1.00086e-08
1.00085e-08
1.00084e-08
1.00084e-08
1.00085e-08
1.00086e-08
1.00087e-08
1.00088e-08
1.00086e-08
1.00084e-08
1.00082e-08
1.0008e-08
1.0008e-08
1.0008e-08
1.00082e-08
1.00083e-08
1.00083e-08
1.0008e-08
1.00079e-08
1.00081e-08
1.00085e-08
1.00085e-08
1.00079e-08
1.00078e-08
1.00078e-08
1.00079e-08
1.00077e-08
1.00077e-08
1.00078e-08
1.00081e-08
1.00078e-08
1.0008e-08
1.00079e-08
1.00108e-08
1.00074e-08
1.01446e-08
1.01618e-08
1.01368e-08
1.01432e-08
1.01467e-08
1.0149e-08
1.01497e-08
1.01493e-08
1.01479e-08
1.01455e-08
1.01422e-08
1.01386e-08
1.01353e-08
1.01328e-08
1.01313e-08
1.01298e-08
1.01274e-08
1.01238e-08
1.01195e-08
1.01159e-08
1.01133e-08
1.01115e-08
1.01096e-08
1.0108e-08
1.01068e-08
1.01061e-08
1.0105e-08
1.01023e-08
1.0098e-08
1.00933e-08
1.00894e-08
1.00867e-08
1.00848e-08
1.0083e-08
1.00809e-08
1.00791e-08
1.00776e-08
1.00762e-08
1.00746e-08
1.00727e-08
1.00707e-08
1.0069e-08
1.00678e-08
1.00667e-08
1.00657e-08
1.00647e-08
1.00636e-08
1.00624e-08
1.00612e-08
1.00601e-08
1.00593e-08
1.00587e-08
1.00583e-08
1.00582e-08
1.00584e-08
1.00588e-08
1.00594e-08
1.006e-08
1.00608e-08
1.00622e-08
1.00641e-08
1.00667e-08
1.00702e-08
1.00752e-08
1.00823e-08
1.00921e-08
1.01054e-08
1.01228e-08
1.01451e-08
1.01727e-08
1.02055e-08
1.02421e-08
1.02798e-08
1.03157e-08
1.03471e-08
1.0372e-08
1.03895e-08
1.03995e-08
1.0402e-08
1.03974e-08
1.03879e-08
1.03769e-08
1.03686e-08
1.03652e-08
1.03667e-08
1.03717e-08
1.03791e-08
1.03876e-08
1.03935e-08
1.03909e-08
1.03744e-08
1.03451e-08
1.02877e-08
1.02104e-08
1.01384e-08
1.01003e-08
1.00763e-08
1.00624e-08
1.00552e-08
1.0049e-08
1.0045e-08
1.00425e-08
1.00406e-08
1.00396e-08
1.00393e-08
1.00399e-08
1.00412e-08
1.00432e-08
1.00457e-08
1.00481e-08
1.00496e-08
1.00495e-08
1.00472e-08
1.00437e-08
1.00406e-08
1.0038e-08
1.00359e-08
1.00342e-08
1.00331e-08
1.00324e-08
1.00321e-08
1.0032e-08
1.00322e-08
1.00325e-08
1.00329e-08
1.00335e-08
1.00342e-08
1.0035e-08
1.00353e-08
1.00347e-08
1.00337e-08
1.00328e-08
1.0032e-08
1.00313e-08
1.00307e-08
1.00303e-08
1.003e-08
1.00297e-08
1.00295e-08
1.00294e-08
1.00293e-08
1.00292e-08
1.00291e-08
1.0029e-08
1.00289e-08
1.00288e-08
1.00288e-08
1.00287e-08
1.00286e-08
1.00286e-08
1.00285e-08
1.00285e-08
1.00285e-08
1.00285e-08
1.00284e-08
1.00284e-08
1.00284e-08
1.00284e-08
1.00284e-08
1.00284e-08
1.00283e-08
1.00283e-08
1.00282e-08
1.00282e-08
1.00281e-08
1.00281e-08
1.0028e-08
1.00279e-08
1.00279e-08
1.00278e-08
1.00277e-08
1.00276e-08
1.00275e-08
1.00275e-08
1.00274e-08
1.00273e-08
1.00272e-08
1.00272e-08
1.00271e-08
1.0027e-08
1.0027e-08
1.00269e-08
1.00269e-08
1.00268e-08
1.00267e-08
1.00267e-08
1.00267e-08
1.00266e-08
1.00266e-08
1.00265e-08
1.00265e-08
1.00264e-08
1.00264e-08
1.00263e-08
1.00263e-08
1.00262e-08
1.00262e-08
1.00261e-08
1.00261e-08
1.0026e-08
1.00259e-08
1.00258e-08
1.00258e-08
1.00257e-08
1.00256e-08
1.00255e-08
1.00255e-08
1.00254e-08
1.00253e-08
1.00252e-08
1.00251e-08
1.0025e-08
1.00249e-08
1.00248e-08
1.00248e-08
1.00247e-08
1.00246e-08
1.00245e-08
1.00245e-08
1.00244e-08
1.00243e-08
1.00243e-08
1.00242e-08
1.00241e-08
1.00241e-08
1.0024e-08
1.00239e-08
1.00239e-08
1.00238e-08
1.00237e-08
1.00237e-08
1.00236e-08
1.00236e-08
1.00235e-08
1.00234e-08
1.00234e-08
1.00233e-08
1.00233e-08
1.00232e-08
1.00232e-08
1.00231e-08
1.0023e-08
1.0023e-08
1.00229e-08
1.00228e-08
1.00227e-08
1.00226e-08
1.00226e-08
1.00225e-08
1.00223e-08
1.00222e-08
1.00222e-08
1.00221e-08