/*--------------------------------*- C++ -*----------------------------------*\
| =========                 |                                                 |
| \\      /  F ield         | OpenFOAM: The Open Source CFD Toolbox           |
|  \\    /   O peration     | Version:  v2006                                 |
|   \\  /    A nd           | Website:  www.openfoam.com                      |
|    \\/     M anipulation  |                                                 |
\*---------------------------------------------------------------------------*/
FoamFile
{
    version     2.0;
    format      ascii;
    class       volScalarField;
    location    "4";
    object      nut;
}
// * * * * * * * * * * * * * * * * * * * * * * * * * * * * * * * * * * * * * //

dimensions      [0 2 -1 0 0 0 0];


internalField   nonuniform List<scalar> 
33000
(
1.75699e-09
7.37116e-09
9.91795e-09
1.29436e-08
1.01832e-08
9.13722e-09
8.17218e-09
7.45841e-09
6.84628e-09
6.34529e-09
5.93532e-09
5.59609e-09
5.32155e-09
5.08989e-09
4.88101e-09
4.65812e-09
4.43124e-09
4.22387e-09
4.07807e-09
3.97423e-09
3.88599e-09
3.78173e-09
3.67357e-09
3.56976e-09
3.47882e-09
3.38477e-09
3.28601e-09
3.20384e-09
3.14588e-09
3.10188e-09
3.04041e-09
2.96153e-09
2.89434e-09
2.84752e-09
2.82171e-09
2.79595e-09
2.75095e-09
2.68651e-09
2.61858e-09
2.56524e-09
2.53685e-09
2.51625e-09
2.48683e-09
2.44934e-09
2.40472e-09
2.35914e-09
2.32047e-09
2.28903e-09
2.26238e-09
2.23973e-09
2.2126e-09
2.18325e-09
2.16009e-09
2.14974e-09
2.14468e-09
2.13675e-09
2.12108e-09
2.0937e-09
2.06414e-09
2.03809e-09
2.01439e-09
1.99023e-09
1.95313e-09
1.89694e-09
1.83589e-09
1.78207e-09
1.73703e-09
1.69599e-09
1.65326e-09
1.60935e-09
1.5734e-09
1.55488e-09
1.57149e-09
1.64265e-09
1.76543e-09
1.92151e-09
2.09699e-09
2.40718e-09
2.8918e-09
3.52301e-09
3.71753e-09
3.70807e-09
3.87256e-09
4.11137e-09
4.21774e-09
4.10777e-09
4.07929e-09
4.0258e-09
3.9352e-09
3.86802e-09
3.92071e-09
3.84813e-09
3.77673e-09
3.68192e-09
3.52735e-09
3.45238e-09
3.43588e-09
3.75046e-09
4.3723e-09
5.83877e-09
6.21008e-09
5.7829e-09
5.73434e-09
6.0743e-09
6.7186e-09
6.81293e-09
6.74527e-09
6.46187e-09
6.10217e-09
5.77366e-09
5.70036e-09
5.65981e-09
5.50823e-09
5.31674e-09
5.10875e-09
5.03304e-09
5.27488e-09
6.41811e-09
6.64655e-09
6.27903e-09
6.19202e-09
6.18706e-09
6.45783e-09
6.41502e-09
6.38123e-09
6.194e-09
6.01569e-09
5.95074e-09
5.90828e-09
5.84435e-09
5.7949e-09
5.7282e-09
5.66473e-09
5.61604e-09
5.57226e-09
5.53013e-09
5.489e-09
5.44909e-09
5.41211e-09
5.37696e-09
5.34715e-09
5.31796e-09
5.2924e-09
5.27268e-09
5.25545e-09
5.24021e-09
5.22708e-09
5.21872e-09
5.21644e-09
5.21826e-09
5.22254e-09
5.22793e-09
5.23673e-09
5.25253e-09
5.27486e-09
5.30222e-09
5.33222e-09
5.36339e-09
5.40154e-09
5.44944e-09
5.50435e-09
5.56166e-09
5.62222e-09
5.69354e-09
5.7766e-09
5.86685e-09
5.95937e-09
6.06103e-09
6.1807e-09
6.3153e-09
6.45865e-09
6.60852e-09
6.77745e-09
6.9757e-09
7.1974e-09
7.43616e-09
7.69501e-09
7.98774e-09
8.32278e-09
8.70752e-09
9.13995e-09
9.61839e-09
1.01633e-08
1.08011e-08
1.15602e-08
1.24291e-08
1.33979e-08
1.4557e-08
1.60186e-08
1.77988e-08
1.99255e-08
2.25673e-08
2.59132e-08
3.02063e-08
3.57378e-08
4.23411e-08
4.88021e-08
4.90777e-08
4.93755e-08
4.9645e-08
4.55249e-08
3.93498e-08
3.42513e-08
3.02489e-08
2.70448e-08
2.44117e-08
2.22206e-08
2.037e-08
1.88281e-08
1.75534e-08
1.64747e-08
1.55311e-08
1.4693e-08
1.39642e-08
1.33382e-08
1.278e-08
1.22745e-08
1.18183e-08
1.14013e-08
1.10307e-08
1.07068e-08
1.04119e-08
1.01373e-08
9.88298e-09
9.64771e-09
9.43735e-09
9.25019e-09
9.07629e-09
8.91441e-09
8.76744e-09
8.62989e-09
8.50252e-09
8.39081e-09
8.28928e-09
8.19443e-09
8.1072e-09
8.02656e-09
7.95374e-09
7.88977e-09
7.83283e-09
7.78033e-09
7.73286e-09
7.69211e-09
7.65657e-09
7.62641e-09
7.59882e-09
7.57385e-09
7.5564e-09
7.54471e-09
7.53452e-09
7.52574e-09
7.52137e-09
7.52272e-09
7.52549e-09
7.53012e-09
7.53926e-09
7.55059e-09
7.56386e-09
7.5788e-09
7.59654e-09
7.61783e-09
7.64067e-09
7.66354e-09
7.68746e-09
7.71411e-09
7.74328e-09
7.77524e-09
7.80938e-09
7.84235e-09
7.87493e-09
7.90919e-09
7.94568e-09
7.98549e-09
8.02657e-09
8.06725e-09
8.10817e-09
8.15004e-09
8.19379e-09
8.23976e-09
8.28533e-09
8.32989e-09
8.37904e-09
8.43091e-09
8.48201e-09
8.53229e-09
8.58333e-09
8.63594e-09
8.69064e-09
8.74778e-09
8.80623e-09
8.86612e-09
8.92501e-09
8.98404e-09
9.04753e-09
9.11459e-09
9.18242e-09
9.25234e-09
9.32389e-09
9.397e-09
9.47348e-09
9.55355e-09
9.63715e-09
9.72234e-09
9.80887e-09
9.90082e-09
9.99675e-09
1.00972e-08
1.0197e-08
1.03002e-08
1.04111e-08
1.05263e-08
1.0645e-08
1.07652e-08
1.08903e-08
1.10214e-08
1.11593e-08
1.13016e-08
1.14466e-08
1.15976e-08
1.17565e-08
1.19219e-08
1.20924e-08
1.22632e-08
1.2442e-08
1.26324e-08
1.28284e-08
1.30253e-08
1.32254e-08
1.34381e-08
1.36577e-08
1.38837e-08
1.41162e-08
1.43532e-08
1.4596e-08
1.4846e-08
1.51025e-08
1.53673e-08
1.56407e-08
1.59216e-08
1.62059e-08
1.64996e-08
1.68092e-08
1.71306e-08
1.74631e-08
1.78067e-08
1.8156e-08
1.85168e-08
1.88955e-08
1.92915e-08
1.97012e-08
2.01126e-08
2.05433e-08
2.09993e-08
2.14719e-08
2.13833e-08
2.12406e-08
2.10987e-08
2.09575e-08
2.08169e-08
2.06766e-08
2.0537e-08
2.03982e-08
2.02599e-08
2.01225e-08
1.99859e-08
1.985e-08
1.97153e-08
1.95816e-08
1.94487e-08
1.93168e-08
1.91856e-08
1.90552e-08
1.89259e-08
1.87977e-08
1.86706e-08
1.85445e-08
1.84198e-08
1.82966e-08
1.81747e-08
1.80542e-08
1.7935e-08
1.78168e-08
1.77003e-08
1.75854e-08
1.74723e-08
1.7361e-08
1.72513e-08
1.71434e-08
1.7037e-08
1.69324e-08
1.68295e-08
1.67282e-08
1.66279e-08
1.65299e-08
1.64341e-08
1.63394e-08
1.6247e-08
1.61562e-08
1.60672e-08
1.59794e-08
1.58934e-08
1.58086e-08
1.5726e-08
1.56448e-08
1.55661e-08
1.54882e-08
1.54118e-08
1.5336e-08
1.52603e-08
1.51864e-08
1.51126e-08
1.50401e-08
1.49674e-08
1.48951e-08
1.48252e-08
1.47518e-08
1.46806e-08
1.46083e-08
1.45312e-08
1.44602e-08
1.43992e-08
1.43201e-08
1.4259e-08
1.4183e-08
1.40573e-08
1.39968e-08
1.39741e-08
1.38509e-08
1.39297e-08
1.3921e-08
1.42309e-08
1.41937e-08
1.4285e-08
1.42489e-08
1.42577e-08
1.4212e-08
1.41922e-08
1.41457e-08
1.4113e-08
1.406e-08
1.40149e-08
1.39602e-08
1.38795e-08
1.38275e-08
1.37904e-08
1.37063e-08
1.37114e-08
1.36747e-08
1.37728e-08
1.37281e-08
1.37259e-08
1.36856e-08
1.36507e-08
1.36078e-08
1.35668e-08
1.35187e-08
1.34702e-08
1.33979e-08
1.33425e-08
1.33055e-08
1.32203e-08
1.32022e-08
1.31227e-08
1.28784e-08
1.28408e-08
1.28842e-08
1.26472e-08
1.32642e-08
1.34338e-08
1.35979e-08
1.32845e-08
1.35756e-08
1.38487e-08
1.38846e-08
1.38418e-08
1.3756e-08
1.36435e-08
1.35156e-08
1.3389e-08
1.32691e-08
1.31566e-08
1.30519e-08
1.29544e-08
1.28634e-08
1.27777e-08
1.26969e-08
1.26209e-08
1.25495e-08
1.2482e-08
1.24182e-08
1.23575e-08
1.22997e-08
1.22445e-08
1.21913e-08
1.21409e-08
1.20939e-08
1.20485e-08
1.20047e-08
1.19635e-08
1.19241e-08
1.18865e-08
1.18508e-08
1.18169e-08
1.17846e-08
1.17538e-08
1.1725e-08
1.16968e-08
1.16698e-08
1.16449e-08
1.16209e-08
1.15979e-08
1.15758e-08
1.15546e-08
1.15339e-08
1.15139e-08
1.14947e-08
1.14764e-08
1.14591e-08
1.1443e-08
1.14281e-08
1.14147e-08
1.14027e-08
1.13916e-08
1.13802e-08
1.13678e-08
1.13548e-08
1.13428e-08
1.1334e-08
1.13275e-08
1.13199e-08
1.13103e-08
1.12977e-08
1.12851e-08
1.12781e-08
1.12744e-08
1.12685e-08
1.12578e-08
1.12462e-08
1.12413e-08
1.12406e-08
1.12355e-08
1.12257e-08
1.12207e-08
1.12223e-08
1.12244e-08
1.11981e-08
1.11017e-08
1.15298e-08
1.01959e-08
1.2999e-08
3.23254e-10
7.33636e-10
1.84772e-09
3.25062e-09
3.32644e-09
3.9249e-09
4.38425e-09
4.93738e-09
5.42077e-09
5.86121e-09
6.1967e-09
6.44706e-09
6.67939e-09
6.96228e-09
7.30649e-09
7.65039e-09
7.8966e-09
8.0213e-09
7.98005e-09
7.88571e-09
7.83056e-09
8.04453e-09
8.4857e-09
9.08497e-09
9.39043e-09
8.84364e-09
8.12707e-09
7.71437e-09
8.05469e-09
9.36897e-09
1.07209e-08
1.08059e-08
9.66361e-09
9.10067e-09
9.49836e-09
1.0397e-08
1.10882e-08
1.06043e-08
1.01992e-08
1.01618e-08
1.07698e-08
1.27123e-08
1.27807e-08
1.11489e-08
1.10336e-08
1.08873e-08
1.09794e-08
1.27463e-08
1.53435e-08
1.56505e-08
1.53552e-08
1.62925e-08
1.87539e-08
2.39587e-08
2.58492e-08
2.64007e-08
2.98226e-08
2.90789e-08
3.35296e-08
5.35966e-08
6.80543e-08
6.39427e-08
4.67877e-08
2.36618e-08
1.47915e-08
1.32774e-08
1.39393e-08
1.34352e-08
1.24442e-08
1.15616e-08
1.07094e-08
9.68791e-09
8.91768e-09
8.46985e-09
7.73221e-09
6.60671e-09
5.80343e-09
5.90637e-09
6.56508e-09
7.55959e-09
6.16296e-09
4.62676e-09
4.54156e-09
3.71071e-09
3.18103e-09
4.80749e-09
1.46298e-08
9.33201e-09
1.17928e-08
2.81501e-08
1.51222e-08
1.16605e-08
1.05195e-08
1.03074e-08
7.663e-09
5.86176e-09
5.03629e-09
3.73943e-09
3.28231e-09
2.39004e-09
1.98798e-09
1.86447e-09
2.74543e-09
4.80291e-09
4.93935e-09
6.77662e-09
9.0731e-09
1.49139e-08
1.06668e-08
1.79647e-08
5.98751e-08
6.09026e-08
2.27634e-08
1.7815e-08
1.51303e-08
1.13752e-08
1.32021e-08
1.05427e-08
7.09724e-09
4.93025e-09
6.81879e-09
1.81829e-08
1.57278e-08
1.98627e-08
2.02092e-08
1.83534e-08
2.2895e-08
4.15911e-08
4.68258e-08
4.34781e-08
4.30277e-08
4.10438e-08
4.76577e-08
5.94625e-08
6.30614e-08
6.46392e-08
6.54625e-08
6.96848e-08
7.33325e-08
8.18426e-08
9.47314e-08
1.1025e-07
1.35937e-07
1.68315e-07
2.11158e-07
2.76167e-07
3.06518e-07
2.70544e-07
2.28053e-07
1.78591e-07
1.36083e-07
1.04991e-07
8.62014e-08
7.56746e-08
6.85071e-08
6.22237e-08
5.55046e-08
4.91485e-08
4.47237e-08
4.16016e-08
3.91438e-08
3.66849e-08
3.4155e-08
3.18083e-08
3.00039e-08
2.86481e-08
2.71468e-08
2.55093e-08
2.41274e-08
2.32194e-08
2.23501e-08
2.12608e-08
2.01736e-08
1.93597e-08
1.87783e-08
1.80977e-08
1.73778e-08
1.67929e-08
1.63041e-08
1.58714e-08
1.54037e-08
1.48963e-08
1.45629e-08
1.43242e-08
1.41648e-08
1.3986e-08
1.37805e-08
1.358e-08
1.34434e-08
1.34052e-08
1.34067e-08
1.34717e-08
1.36774e-08
1.38883e-08
1.40597e-08
1.41993e-08
1.44e-08
1.47435e-08
1.524e-08
1.57403e-08
1.6106e-08
1.64613e-08
1.69621e-08
1.75915e-08
1.81435e-08
1.86315e-08
1.91615e-08
1.97799e-08
2.05089e-08
2.12527e-08
2.19479e-08
2.26366e-08
2.34974e-08
2.4514e-08
2.55263e-08
2.65185e-08
2.75653e-08
2.8742e-08
3.00435e-08
3.15919e-08
3.3465e-08
3.53282e-08
3.70885e-08
3.91288e-08
4.15713e-08
4.44244e-08
4.77416e-08
5.13845e-08
5.54539e-08
6.02506e-08
6.55713e-08
7.18637e-08
8.02088e-08
9.04346e-08
1.02386e-07
1.16467e-07
1.34018e-07
1.58241e-07
1.95569e-07
2.55683e-07
3.38038e-07
3.58347e-07
3.57618e-07
3.56482e-07
3.55286e-07
3.22043e-07
2.57833e-07
2.13228e-07
1.84105e-07
1.66118e-07
1.51048e-07
1.36998e-07
1.25624e-07
1.17581e-07
1.11901e-07
1.06781e-07
1.01618e-07
9.71157e-08
9.27988e-08
8.96558e-08
8.84247e-08
8.6867e-08
8.48782e-08
8.29714e-08
8.11548e-08
7.96533e-08
7.86675e-08
7.82177e-08
7.8e-08
7.7449e-08
7.67087e-08
7.60907e-08
7.56745e-08
7.55221e-08
7.53254e-08
7.50875e-08
7.51458e-08
7.53808e-08
7.53977e-08
7.55473e-08
7.55282e-08
7.50372e-08
7.52714e-08
7.59269e-08
7.62072e-08
7.62536e-08
7.63981e-08
7.63926e-08
7.66459e-08
7.70268e-08
7.72392e-08
7.7553e-08
7.77078e-08
7.7706e-08
7.81439e-08
7.85023e-08
7.84463e-08
7.85051e-08
7.89119e-08
7.92703e-08
7.9493e-08
7.96881e-08
7.98271e-08
7.99727e-08
8.04726e-08
8.08252e-08
8.09988e-08
8.14393e-08
8.14976e-08
8.1907e-08
8.23831e-08
8.27475e-08
8.30607e-08
8.36566e-08
8.42043e-08
8.46894e-08
8.5208e-08
8.5682e-08
8.638e-08
8.71548e-08
8.786e-08
8.86319e-08
8.93038e-08
8.98695e-08
9.10451e-08
9.21147e-08
9.30559e-08
9.40088e-08
9.4939e-08
9.60721e-08
9.73757e-08
9.86321e-08
9.9869e-08
1.01256e-07
1.02732e-07
1.04188e-07
1.05598e-07
1.07103e-07
1.08663e-07
1.10288e-07
1.12044e-07
1.13661e-07
1.15227e-07
1.17168e-07
1.1915e-07
1.21025e-07
1.22836e-07
1.2483e-07
1.26867e-07
1.28916e-07
1.30934e-07
1.32883e-07
1.35186e-07
1.37352e-07
1.39518e-07
1.41825e-07
1.44159e-07
1.46643e-07
1.48701e-07
1.50596e-07
1.52977e-07
1.5615e-07
1.58742e-07
1.60864e-07
1.63549e-07
1.65829e-07
1.68361e-07
1.71516e-07
1.74124e-07
1.76835e-07
1.7989e-07
1.82869e-07
1.8588e-07
1.88553e-07
1.91591e-07
1.94629e-07
1.97907e-07
2.01661e-07
2.04746e-07
2.07708e-07
2.11152e-07
2.14749e-07
2.18351e-07
2.2156e-07
2.24786e-07
2.29328e-07
2.33299e-07
2.37089e-07
2.41361e-07
2.45719e-07
2.50098e-07
2.54582e-07
2.58774e-07
2.63368e-07
2.6901e-07
2.74642e-07
2.79805e-07
2.85832e-07
2.90639e-07
2.9773e-07
3.03151e-07
3.11017e-07
3.16052e-07
3.24716e-07
3.28991e-07
3.40369e-07
3.42608e-07
3.54925e-07
3.56238e-07
3.56057e-07
3.64787e-07
3.65958e-07
3.94186e-07
3.99008e-07
4.42853e-07
4.43041e-07
3.90273e-07
4.10355e-07
4.26828e-07
4.75085e-07
7.93245e-07
7.92932e-07
2.42057e-07
2.51397e-07
1.79461e-07
1.5564e-07
8.9725e-08
9.43951e-08
1.66403e-07
2.13236e-07
2.17326e-07
2.08834e-07
3.35986e-07
3.07981e-07
3.82794e-07
4.02033e-07
4.72198e-07
5.27048e-07
7.8396e-07
7.91011e-07
3.29503e-07
3.48344e-07
2.70253e-07
2.44044e-07
1.45949e-07
1.5395e-07
2.79432e-07
3.36377e-07
3.54699e-07
3.27561e-07
7.70956e-07
5.96875e-07
7.96869e-07
7.94038e-07
7.97307e-07
4.84213e-07
6.34923e-07
6.91839e-07
7.05289e-07
2.39467e-07
2.44834e-07
1.04618e-07
1.0133e-07
4.94363e-08
4.45918e-08
2.223e-08
2.15007e-08
3.8515e-08
4.22166e-08
4.28394e-08
5.15976e-08
8.00672e-08
9.8032e-08
1.22583e-07
1.45246e-07
1.68864e-07
1.94051e-07
2.21381e-07
2.50498e-07
2.81223e-07
3.13985e-07
3.4929e-07
3.8718e-07
4.28108e-07
4.73016e-07
5.23411e-07
5.80135e-07
6.43688e-07
7.14851e-07
7.76202e-07
7.78316e-07
7.79906e-07
7.81117e-07
7.82155e-07
7.83254e-07
7.8434e-07
7.85571e-07
7.86995e-07
7.88539e-07
7.90188e-07
7.91838e-07
7.93184e-07
7.93964e-07
7.94614e-07
7.95245e-07
7.95849e-07
7.96418e-07
7.96858e-07
7.97209e-07
7.97512e-07
7.97733e-07
7.97873e-07
7.97981e-07
7.98099e-07
7.98221e-07
7.98417e-07
7.98849e-07
7.99394e-07
7.99872e-07
8.00345e-07
8.00801e-07
8.01123e-07
8.01207e-07
8.01092e-07
8.0094e-07
8.0103e-07
8.01799e-07
8.0207e-07
8.01759e-07
8.00511e-07
7.97796e-07
7.96828e-07
7.99276e-07
8.01913e-07
8.01092e-07
7.98209e-07
7.9706e-07
8.00443e-07
8.03611e-07
8.03169e-07
8.02853e-07
8.03812e-07
8.04487e-07
8.03738e-07
8.02167e-07
8.00229e-07
1.73451e-07
9.33331e-08
4.95973e-08
8.99703e-08
2.55003e-10
2.91283e-10
8.87628e-10
1.43154e-09
1.66954e-09
2.10893e-09
2.45114e-09
2.78979e-09
3.07635e-09
3.31907e-09
3.49486e-09
3.62263e-09
3.75109e-09
3.90464e-09
4.13724e-09
4.44614e-09
4.69511e-09
4.66704e-09
4.45992e-09
4.31629e-09
4.38043e-09
4.68674e-09
5.11068e-09
5.46024e-09
5.66661e-09
5.44446e-09
4.99957e-09
4.53609e-09
4.65878e-09
5.3814e-09
6.48201e-09
7.09549e-09
6.1825e-09
5.31063e-09
5.48028e-09
6.11864e-09
7.24246e-09
8.22546e-09
7.35491e-09
6.36108e-09
5.97908e-09
6.29388e-09
7.15918e-09
7.6837e-09
8.1766e-09
8.2084e-09
7.3098e-09
6.95581e-09
7.73857e-09
9.59745e-09
1.12955e-08
1.08475e-08
1.09959e-08
1.33165e-08
1.64199e-08
2.17767e-08
2.48788e-08
1.73642e-08
1.78989e-08
2.43217e-08
2.79994e-08
3.43227e-08
2.15633e-08
1.16027e-08
9.30827e-09
1.13896e-08
1.33076e-08
1.09064e-08
8.70283e-09
7.8918e-09
7.32011e-09
6.86552e-09
6.6449e-09
6.68137e-09
6.56874e-09
6.29311e-09
6.01107e-09
5.28137e-09
4.27901e-09
3.56372e-09
3.39539e-09
3.48723e-09
3.69718e-09
2.74322e-09
1.99001e-09
2.06218e-09
2.04188e-09
1.74978e-09
2.58746e-09
4.42793e-09
8.11208e-09
8.58004e-09
2.49043e-08
1.15804e-08
6.76925e-09
6.17726e-09
5.75183e-09
5.04379e-09
5.10805e-09
4.47225e-09
2.72837e-09
2.42969e-09
1.78022e-09
1.53801e-09
1.41792e-09
1.90687e-09
2.73044e-09
3.60295e-09
4.74331e-09
6.5016e-09
8.52361e-09
1.04922e-08
1.98118e-08
8.90503e-08
2.25061e-08
1.21545e-08
1.06983e-08
1.30516e-08
1.16314e-08
1.53811e-08
9.8836e-09
6.70174e-09
4.29907e-09
5.63069e-09
1.42764e-08
1.30769e-08
1.85576e-08
2.00415e-08
1.87955e-08
2.43043e-08
5.31369e-08
6.39769e-08
5.37785e-08
5.5776e-08
5.16835e-08
4.6529e-08
5.23757e-08
6.7056e-08
7.04021e-08
7.51555e-08
8.41268e-08
9.39641e-08
1.11979e-07
1.41656e-07
1.64305e-07
1.72803e-07
1.79605e-07
1.83913e-07
1.70254e-07
1.3864e-07
1.08555e-07
8.67129e-08
7.53217e-08
6.99121e-08
6.41318e-08
5.66608e-08
4.97631e-08
4.47593e-08
4.14351e-08
3.888e-08
3.62688e-08
3.36553e-08
3.16663e-08
2.99624e-08
2.82791e-08
2.66419e-08
2.50646e-08
2.38457e-08
2.27756e-08
2.1821e-08
2.07698e-08
1.98016e-08
1.90787e-08
1.83517e-08
1.76353e-08
1.69492e-08
1.63649e-08
1.58751e-08
1.54585e-08
1.50211e-08
1.45499e-08
1.41124e-08
1.38468e-08
1.36952e-08
1.35281e-08
1.3242e-08
1.30585e-08
1.29872e-08
1.28951e-08
1.28112e-08
1.28183e-08
1.2884e-08
1.30327e-08
1.32149e-08
1.33614e-08
1.35054e-08
1.36781e-08
1.38934e-08
1.42369e-08
1.4696e-08
1.51077e-08
1.5511e-08
1.59136e-08
1.63655e-08
1.68799e-08
1.74107e-08
1.79686e-08
1.86178e-08
1.92728e-08
1.98559e-08
2.04926e-08
2.12318e-08
2.21282e-08
2.30183e-08
2.39031e-08
2.49133e-08
2.5944e-08
2.70889e-08
2.8371e-08
2.97392e-08
3.13132e-08
3.30447e-08
3.4801e-08
3.69821e-08
3.94337e-08
4.1761e-08
4.44342e-08
4.78262e-08
5.18605e-08
5.6552e-08
6.18282e-08
6.69172e-08
7.33061e-08
8.29231e-08
9.41642e-08
1.05833e-07
1.19735e-07
1.38122e-07
1.64742e-07
2.02309e-07
2.46866e-07
2.80959e-07
3.05041e-07
3.00049e-07
2.76436e-07
2.4387e-07
2.07764e-07
1.82598e-07
1.65509e-07
1.51193e-07
1.36327e-07
1.24211e-07
1.15891e-07
1.09292e-07
1.04691e-07
1.00306e-07
9.54179e-08
9.05659e-08
8.66613e-08
8.45398e-08
8.37057e-08
8.22592e-08
7.997e-08
7.83262e-08
7.71769e-08
7.59782e-08
7.50335e-08
7.44196e-08
7.41307e-08
7.35274e-08
7.24586e-08
7.20206e-08
7.24706e-08
7.30103e-08
7.26409e-08
7.15333e-08
7.13607e-08
7.22151e-08
7.26052e-08
7.23239e-08
7.20831e-08
7.24208e-08
7.30387e-08
7.32898e-08
7.31542e-08
7.28155e-08
7.30858e-08
7.41659e-08
7.47056e-08
7.46375e-08
7.4444e-08
7.44558e-08
7.46895e-08
7.53289e-08
7.61986e-08
7.63375e-08
7.59585e-08
7.60624e-08
7.65842e-08
7.704e-08
7.74309e-08
7.7581e-08
7.74493e-08
7.80319e-08
7.87597e-08
7.89423e-08
7.87886e-08
7.92552e-08
7.98584e-08
8.02373e-08
8.06154e-08
8.08295e-08
8.12283e-08
8.20674e-08
8.26042e-08
8.30669e-08
8.34758e-08
8.41552e-08
8.4925e-08
8.57199e-08
8.67049e-08
8.71097e-08
8.75829e-08
8.87439e-08
8.99228e-08
9.08459e-08
9.16539e-08
9.27044e-08
9.39139e-08
9.51952e-08
9.66688e-08
9.77785e-08
9.8767e-08
1.00257e-07
1.01881e-07
1.03286e-07
1.04691e-07
1.06251e-07
1.07635e-07
1.09146e-07
1.11229e-07
1.13181e-07
1.14926e-07
1.16879e-07
1.18641e-07
1.20269e-07
1.22111e-07
1.24277e-07
1.26407e-07
1.28001e-07
1.30171e-07
1.32854e-07
1.34914e-07
1.36918e-07
1.38776e-07
1.41149e-07
1.44275e-07
1.46849e-07
1.48304e-07
1.49795e-07
1.52621e-07
1.56141e-07
1.58834e-07
1.60682e-07
1.62685e-07
1.65256e-07
1.68801e-07
1.72042e-07
1.74178e-07
1.76768e-07
1.79469e-07
1.82531e-07
1.85847e-07
1.88541e-07
1.90945e-07
1.94024e-07
1.98325e-07
2.02434e-07
2.05064e-07
2.07743e-07
2.10562e-07
2.144e-07
2.18019e-07
2.21578e-07
2.25578e-07
2.29822e-07
2.33641e-07
2.36773e-07
2.4099e-07
2.45708e-07
2.50804e-07
2.53556e-07
2.58003e-07
2.63653e-07
2.69453e-07
2.73873e-07
2.81567e-07
2.86527e-07
2.92256e-07
2.96213e-07
3.03339e-07
3.08103e-07
3.18667e-07
3.23979e-07
3.33501e-07
3.36303e-07
3.33262e-07
3.41625e-07
3.43134e-07
3.64431e-07
3.70813e-07
4.04858e-07
4.03778e-07
3.55098e-07
3.69509e-07
3.87906e-07
4.35318e-07
1.19708e-06
8.08189e-07
2.23698e-07
2.24132e-07
1.64743e-07
1.45954e-07
8.4614e-08
9.24199e-08
1.64798e-07
1.77672e-07
2.18701e-07
2.43471e-07
6.36832e-07
4.07067e-07
3.84691e-07
4.68508e-07
4.46537e-07
8.60956e-07
6.11559e-07
3.8129e-07
2.74234e-07
2.66637e-07
2.28624e-07
2.1123e-07
1.32762e-07
1.44891e-07
2.60628e-07
2.7733e-07
3.29046e-07
3.56971e-07
7.65857e-07
6.39479e-07
6.97523e-07
7.15625e-07
4.96809e-07
5.05122e-07
4.48822e-07
4.75772e-07
5.80059e-07
2.64754e-07
2.7294e-07
9.66554e-08
9.02632e-08
4.45993e-08
3.94027e-08
2.09763e-08
2.13525e-08
3.97312e-08
4.13565e-08
4.50957e-08
5.15908e-08
7.63579e-08
9.46913e-08
1.30249e-07
1.42597e-07
1.45985e-07
1.59798e-07
1.77558e-07
1.99011e-07
2.23301e-07
2.50512e-07
2.80583e-07
3.12927e-07
3.47048e-07
3.83453e-07
4.2338e-07
4.68579e-07
5.20891e-07
5.81524e-07
6.51196e-07
7.3043e-07
8.1975e-07
9.19361e-07
1.02122e-06
1.13712e-06
1.27857e-06
1.45616e-06
1.68077e-06
1.96914e-06
2.36794e-06
2.92754e-06
3.62075e-06
4.43652e-06
5.30824e-06
6.14224e-06
6.60641e-06
6.20361e-06
5.21965e-06
4.22063e-06
3.50545e-06
2.97996e-06
2.61363e-06
2.38827e-06
2.22966e-06
2.08974e-06
1.94561e-06
1.80047e-06
1.67162e-06
1.57322e-06
1.50461e-06
1.45062e-06
1.39237e-06
1.32341e-06
1.25508e-06
1.20237e-06
1.16946e-06
1.15006e-06
1.13563e-06
1.12515e-06
1.12959e-06
1.15258e-06
1.16334e-06
1.11805e-06
1.03336e-06
9.77117e-07
9.99477e-07
1.0683e-06
1.07707e-06
9.79477e-07
8.94689e-07
9.34574e-07
1.04907e-06
1.05735e-06
9.47467e-07
9.37677e-07
1.05788e-06
1.03258e-06
1.04226e-06
1.24294e-06
1.74099e-07
9.29341e-08
4.95919e-08
9.15757e-08
3.57256e-10
2.88299e-10
8.25088e-10
1.16727e-09
1.52243e-09
1.92387e-09
2.28125e-09
2.58336e-09
2.82971e-09
3.0185e-09
3.17088e-09
3.30382e-09
3.44757e-09
3.5917e-09
3.75161e-09
3.94366e-09
4.07648e-09
4.01747e-09
3.93548e-09
4.01559e-09
4.25175e-09
4.51688e-09
4.62514e-09
4.54328e-09
4.58953e-09
4.9286e-09
5.26783e-09
5.18615e-09
4.95164e-09
4.83496e-09
5.05685e-09
5.42791e-09
5.67192e-09
5.40489e-09
5.20547e-09
5.31792e-09
5.89623e-09
6.8513e-09
7.10567e-09
6.17118e-09
5.26007e-09
5.10521e-09
5.69787e-09
7.2231e-09
8.93247e-09
8.60264e-09
7.3112e-09
6.37656e-09
6.17209e-09
7.1856e-09
9.51668e-09
1.0135e-08
9.42616e-09
1.03742e-08
1.34948e-08
1.72709e-08
1.55102e-08
1.31132e-08
1.3792e-08
1.80083e-08
2.38079e-08
2.2078e-08
1.24183e-08
8.46734e-09
8.45962e-09
9.6095e-09
8.51962e-09
7.05694e-09
6.42745e-09
6.38508e-09
6.62389e-09
6.17049e-09
5.42236e-09
4.88697e-09
4.65895e-09
5.05651e-09
6.2689e-09
7.22509e-09
6.96787e-09
5.92959e-09
4.45438e-09
3.12028e-09
2.45754e-09
2.49164e-09
2.80707e-09
2.55247e-09
2.26836e-09
1.94134e-09
1.45156e-09
1.50615e-09
1.52046e-09
2.0293e-09
3.5401e-09
7.21348e-09
7.62626e-09
2.17255e-08
1.70082e-08
7.15522e-09
6.22237e-09
6.0928e-09
5.15909e-09
5.21422e-09
4.65377e-09
2.98476e-09
2.67489e-09
1.91962e-09
1.51828e-09
1.45722e-09
1.40336e-09
1.87213e-09
3.49553e-09
3.76273e-09
5.81828e-09
7.83638e-09
9.76433e-09
1.56346e-08
4.06634e-08
2.59646e-08
1.37763e-08
1.05202e-08
1.31624e-08
1.1396e-08
1.41634e-08
8.99139e-09
6.31757e-09
4.02429e-09
5.20979e-09
1.29384e-08
1.19549e-08
1.74117e-08
1.99591e-08
2.05667e-08
2.77223e-08
7.28153e-08
8.02335e-08
8.42038e-08
5.59657e-08
5.42506e-08
5.25275e-08
6.06081e-08
8.4128e-08
8.84998e-08
9.37372e-08
1.15231e-07
1.2689e-07
1.27148e-07
1.32199e-07
1.35878e-07
1.25345e-07
1.08414e-07
9.11498e-08
7.72697e-08
7.07087e-08
6.65215e-08
5.99982e-08
5.23393e-08
4.66427e-08
4.2994e-08
4.04971e-08
3.80105e-08
3.51107e-08
3.25391e-08
3.07882e-08
2.94245e-08
2.78793e-08
2.60191e-08
2.44198e-08
2.34574e-08
2.26524e-08
2.156e-08
2.03925e-08
1.95759e-08
1.90182e-08
1.82651e-08
1.74231e-08
1.6845e-08
1.64133e-08
1.59326e-08
1.54098e-08
1.49518e-08
1.46044e-08
1.43169e-08
1.40787e-08
1.38663e-08
1.36236e-08
1.33417e-08
1.31556e-08
1.3113e-08
1.31129e-08
1.30709e-08
1.30869e-08
1.31171e-08
1.31073e-08
1.31905e-08
1.3387e-08
1.36111e-08
1.37781e-08
1.3923e-08
1.41061e-08
1.4459e-08
1.49237e-08
1.53654e-08
1.56969e-08
1.60053e-08
1.64825e-08
1.71318e-08
1.77725e-08
1.83697e-08
1.88813e-08
1.93748e-08
2.0033e-08
2.08873e-08
2.18082e-08
2.25636e-08
2.33484e-08
2.43806e-08
2.55146e-08
2.66511e-08
2.78921e-08
2.92102e-08
3.05224e-08
3.21469e-08
3.40352e-08
3.6213e-08
3.86329e-08
4.09278e-08
4.32422e-08
4.6094e-08
4.98913e-08
5.46631e-08
5.98925e-08
6.46052e-08
6.99085e-08
7.77817e-08
8.80501e-08
9.86956e-08
1.09158e-07
1.22586e-07
1.41191e-07
1.64324e-07
1.90246e-07
2.08098e-07
2.15345e-07
2.12887e-07
2.08404e-07
1.94574e-07
1.74182e-07
1.61464e-07
1.52817e-07
1.40722e-07
1.26342e-07
1.16516e-07
1.10473e-07
1.05089e-07
1.01354e-07
9.69703e-08
9.18508e-08
8.77522e-08
8.53689e-08
8.40222e-08
8.22443e-08
8.02644e-08
7.81736e-08
7.69403e-08
7.64062e-08
7.56295e-08
7.44725e-08
7.35591e-08
7.32156e-08
7.25353e-08
7.15632e-08
7.13565e-08
7.19607e-08
7.26455e-08
7.25082e-08
7.14328e-08
7.09739e-08
7.16072e-08
7.19804e-08
7.16499e-08
7.16239e-08
7.27506e-08
7.33178e-08
7.2651e-08
7.2312e-08
7.24257e-08
7.3106e-08
7.43675e-08
7.45812e-08
7.41082e-08
7.40551e-08
7.42398e-08
7.4412e-08
7.52091e-08
7.61427e-08
7.59201e-08
7.58234e-08
7.6377e-08
7.66088e-08
7.67376e-08
7.70652e-08
7.72401e-08
7.75415e-08
7.84564e-08
7.86498e-08
7.85128e-08
7.86453e-08
7.93781e-08
8.01481e-08
8.01631e-08
8.02697e-08
8.06367e-08
8.14427e-08
8.22135e-08
8.2468e-08
8.28594e-08
8.34865e-08
8.45512e-08
8.49598e-08
8.54618e-08
8.66523e-08
8.71713e-08
8.77782e-08
8.9023e-08
8.97401e-08
9.07124e-08
9.19657e-08
9.29367e-08
9.40436e-08
9.52634e-08
9.66488e-08
9.78785e-08
9.90151e-08
1.0057e-07
1.02081e-07
1.03374e-07
1.04701e-07
1.06231e-07
1.07736e-07
1.09402e-07
1.11366e-07
1.13261e-07
1.152e-07
1.17049e-07
1.18988e-07
1.20799e-07
1.22281e-07
1.24186e-07
1.26256e-07
1.28015e-07
1.30635e-07
1.33407e-07
1.34924e-07
1.36751e-07
1.38797e-07
1.41476e-07
1.44472e-07
1.46885e-07
1.48749e-07
1.50536e-07
1.53005e-07
1.55804e-07
1.58764e-07
1.60758e-07
1.62776e-07
1.65805e-07
1.6939e-07
1.72085e-07
1.74184e-07
1.76754e-07
1.79301e-07
1.82357e-07
1.85815e-07
1.88764e-07
1.91219e-07
1.94304e-07
1.98605e-07
2.01957e-07
2.0445e-07
2.07452e-07
2.10654e-07
2.14469e-07
2.18038e-07
2.21659e-07
2.25772e-07
2.29347e-07
2.33104e-07
2.36647e-07
2.40455e-07
2.45335e-07
2.50045e-07
2.54121e-07
2.58095e-07
2.64526e-07
2.68495e-07
2.74365e-07
2.8025e-07
2.86538e-07
2.9056e-07
2.98518e-07
3.02888e-07
3.13178e-07
3.16648e-07
3.23887e-07
3.27334e-07
3.49698e-07
3.47512e-07
3.90117e-07
3.68969e-07
3.34118e-07
3.28308e-07
3.183e-07
3.60595e-07
3.84038e-07
9.48209e-07
6.6446e-07
2.06761e-07
2.06222e-07
1.54469e-07
1.36271e-07
7.99347e-08
8.74025e-08
1.54508e-07
1.60343e-07
2.00679e-07
2.30641e-07
7.27736e-07
6.48834e-07
5.6709e-07
7.20864e-07
5.00345e-07
5.61895e-07
4.89245e-07
2.47479e-07
2.48171e-07
2.35058e-07
1.98413e-07
1.61703e-07
1.20168e-07
1.27609e-07
2.25655e-07
2.30493e-07
2.82014e-07
3.1536e-07
8.21486e-07
8.77563e-07
1.04268e-06
9.609e-07
4.53343e-07
4.55968e-07
6.28129e-07
6.85481e-07
2.18637e-07
3.22981e-07
4.8632e-07
8.80731e-08
8.06537e-08
4.13457e-08
3.67312e-08
2.02058e-08
2.01878e-08
3.60219e-08
3.57577e-08
4.10745e-08
5.20263e-08
7.96024e-08
9.0897e-08
2.15705e-07
2.23767e-07
1.43865e-07
1.41419e-07
1.50641e-07
1.63977e-07
1.81603e-07
2.02403e-07
2.25651e-07
2.50341e-07
2.76754e-07
3.05819e-07
3.37693e-07
3.71518e-07
4.07139e-07
4.4594e-07
4.89827e-07
5.39886e-07
5.96771e-07
6.60637e-07
7.30292e-07
8.06807e-07
8.96678e-07
9.84722e-07
1.08238e-06
1.20871e-06
1.36815e-06
1.56919e-06
1.81602e-06
2.11043e-06
2.46354e-06
2.83373e-06
3.17554e-06
3.45009e-06
3.64388e-06
3.73619e-06
3.67676e-06
3.4712e-06
3.18453e-06
2.91642e-06
2.65123e-06
2.45127e-06
2.30585e-06
2.17716e-06
2.03749e-06
1.88286e-06
1.73528e-06
1.61989e-06
1.54612e-06
1.50214e-06
1.46045e-06
1.39674e-06
1.31425e-06
1.2394e-06
1.19201e-06
1.17144e-06
1.16727e-06
1.16783e-06
1.16509e-06
1.16468e-06
1.16402e-06
1.13604e-06
1.06825e-06
9.98039e-07
9.88178e-07
1.03326e-06
1.06404e-06
1.00071e-06
9.04382e-07
9.02236e-07
1.0022e-06
1.05746e-06
9.93403e-07
9.65774e-07
1.05615e-06
1.06564e-06
9.25966e-07
9.62381e-07
1.18367e-06
1.71647e-07
9.32253e-08
4.98123e-08
9.08718e-08
4.74004e-10
4.3729e-10
9.46259e-10
1.31647e-09
1.84808e-09
2.25156e-09
2.66227e-09
2.92977e-09
3.1125e-09
3.21435e-09
3.31248e-09
3.44246e-09
3.61303e-09
3.74509e-09
3.84887e-09
3.8803e-09
3.87641e-09
3.86562e-09
3.90517e-09
4.0785e-09
4.37452e-09
4.57683e-09
4.53651e-09
4.37648e-09
4.35503e-09
4.69065e-09
5.23517e-09
5.49954e-09
5.31289e-09
5.0379e-09
4.90389e-09
5.05427e-09
5.34625e-09
5.36791e-09
5.16223e-09
5.11756e-09
5.53042e-09
6.11399e-09
6.4435e-09
5.8658e-09
5.04491e-09
4.87212e-09
5.45797e-09
6.6033e-09
8.25522e-09
8.77347e-09
7.8008e-09
6.66425e-09
6.06188e-09
6.21074e-09
7.21777e-09
8.57723e-09
9.16238e-09
9.47165e-09
1.10502e-08
1.34868e-08
1.33767e-08
1.21766e-08
1.28066e-08
1.67158e-08
1.92612e-08
1.54399e-08
1.04839e-08
8.37356e-09
8.44984e-09
8.58418e-09
7.17517e-09
6.24237e-09
6.26474e-09
6.66193e-09
6.44675e-09
5.52679e-09
4.84161e-09
4.60846e-09
4.82369e-09
4.88728e-09
4.91778e-09
5.54915e-09
6.8248e-09
8.16739e-09
7.58859e-09
5.56942e-09
4.61417e-09
3.76838e-09
3.0639e-09
2.65647e-09
2.15322e-09
2.16357e-09
2.23483e-09
2.46679e-09
1.95394e-09
1.54206e-09
1.68041e-09
1.50944e-09
1.81771e-09
3.08012e-09
5.45306e-09
5.54179e-09
3.20724e-08
6.19383e-08
1.146e-08
9.41291e-09
9.16779e-09
7.84364e-09
7.83676e-09
5.51293e-09
3.65995e-09
2.58761e-09
2.12526e-09
1.67353e-09
1.47648e-09
1.34694e-09
1.86373e-09
3.31012e-09
3.65225e-09
5.7289e-09
7.45066e-09
8.99629e-09
1.56833e-08
4.00252e-08
2.95459e-08
1.50093e-08
1.10725e-08
1.36822e-08
1.10459e-08
1.31141e-08
8.38644e-09
5.99899e-09
3.81192e-09
4.8691e-09
1.18635e-08
1.10428e-08
1.62591e-08
1.98148e-08
4.08493e-08
2.10571e-08
2.7849e-08
8.36257e-08
1.01708e-07
5.74353e-08
6.02382e-08
6.3714e-08
7.65503e-08
1.13319e-07
1.13239e-07
9.7248e-08
9.99525e-08
1.05132e-07
9.95062e-08
8.92254e-08
7.73795e-08
6.90268e-08
6.56837e-08
6.14728e-08
5.4358e-08
4.78651e-08
4.34847e-08
4.09447e-08
3.92452e-08
3.69198e-08
3.40289e-08
3.15671e-08
2.98435e-08
2.8509e-08
2.70547e-08
2.53446e-08
2.40599e-08
2.32369e-08
2.24147e-08
2.12102e-08
2.00983e-08
1.93834e-08
1.88136e-08
1.81328e-08
1.74068e-08
1.68548e-08
1.64357e-08
1.59614e-08
1.5433e-08
1.50346e-08
1.47489e-08
1.45619e-08
1.4302e-08
1.40136e-08
1.37729e-08
1.35359e-08
1.33617e-08
1.33387e-08
1.33989e-08
1.33826e-08
1.33411e-08
1.32998e-08
1.32373e-08
1.32698e-08
1.34407e-08
1.36895e-08
1.3879e-08
1.39982e-08
1.41038e-08
1.43176e-08
1.4717e-08
1.51434e-08
1.55045e-08
1.57896e-08
1.61797e-08
1.67816e-08
1.7439e-08
1.79822e-08
1.84337e-08
1.89663e-08
1.96269e-08
2.04786e-08
2.14027e-08
2.20956e-08
2.27781e-08
2.37134e-08
2.48605e-08
2.61135e-08
2.73801e-08
2.85383e-08
2.96563e-08
3.11967e-08
3.31921e-08
3.52817e-08
3.74377e-08
3.96816e-08
4.20522e-08
4.4675e-08
4.77525e-08
5.18615e-08
5.69093e-08
6.20339e-08
6.68249e-08
7.24498e-08
8.06697e-08
9.05511e-08
9.90427e-08
1.07472e-07
1.20338e-07
1.36742e-07
1.52837e-07
1.62937e-07
1.65646e-07
1.65341e-07
1.65522e-07
1.5938e-07
1.4989e-07
1.4405e-07
1.37893e-07
1.26668e-07