/*--------------------------------*- C++ -*----------------------------------*\
| =========                 |                                                 |
| \\      /  F ield         | OpenFOAM: The Open Source CFD Toolbox           |
|  \\    /   O peration     | Version:  v2006                                 |
|   \\  /    A nd           | Website:  www.openfoam.com                      |
|    \\/     M anipulation  |                                                 |
\*---------------------------------------------------------------------------*/
FoamFile
{
    version     2.0;
    format      ascii;
    class       volScalarField;
    location    "4";
    object      omega;
}
// * * * * * * * * * * * * * * * * * * * * * * * * * * * * * * * * * * * * * //

dimensions      [0 0 -1 0 0 0 0];


internalField   nonuniform List<scalar> 
33000
(
0.806432
0.808506
0.80896
0.809334
0.809657
0.809931
0.810157
0.810341
0.810486
0.810596
0.810679
0.810743
0.810798
0.810847
0.810895
0.810939
0.810974
0.811002
0.811025
0.811051
0.811083
0.811121
0.811166
0.811213
0.811261
0.811299
0.811326
0.811346
0.811365
0.811382
0.811402
0.811418
0.811428
0.811438
0.811451
0.811464
0.811477
0.81148
0.811462
0.811426
0.811386
0.811349
0.81132
0.811297
0.811267
0.811224
0.811171
0.81111
0.811047
0.810991
0.810942
0.810896
0.810854
0.81082
0.810801
0.810796
0.810788
0.810748
0.810659
0.81053
0.810384
0.810242
0.810075
0.809843
0.809539
0.809196
0.808858
0.80854
0.808233
0.807926
0.807626
0.807357
0.807143
0.807022
0.80701
0.807089
0.807232
0.807467
0.807896
0.808282
0.808458
0.80832
0.80817
0.808043
0.807919
0.807801
0.807762
0.807797
0.807809
0.807742
0.807648
0.807485
0.807281
0.807067
0.806792
0.806484
0.806178
0.805959
0.80586
0.805978
0.806065
0.805982
0.805858
0.805787
0.805768
0.805767
0.805746
0.805699
0.805642
0.80559
0.805535
0.805467
0.805377
0.805252
0.805108
0.804979
0.804907
0.804987
0.805096
0.805113
0.8051
0.805091
0.805094
0.805107
0.80512
0.805128
0.805132
0.805135
0.805137
0.805138
0.805139
0.80514
0.805141
0.805139
0.805134
0.805129
0.805126
0.805122
0.805118
0.805114
0.80511
0.805106
0.805097
0.805089
0.805082
0.805075
0.805068
0.805056
0.805046
0.805037
0.80503
0.805022
0.805009
0.804997
0.804986
0.804978
0.804971
0.804961
0.804949
0.804939
0.804931
0.804924
0.804914
0.804905
0.804897
0.804891
0.804884
0.804874
0.804865
0.804859
0.804854
0.804846
0.804838
0.804831
0.804826
0.804822
0.804817
0.80481
0.804805
0.804801
0.804799
0.804797
0.804793
0.804789
0.804787
0.804787
0.804785
0.804781
0.804779
0.804779
0.804777
0.804778
0.804783
0.804793
0.804809
0.804829
0.804855
0.804884
0.804913
0.804937
0.804957
0.804974
0.804987
0.804995
0.805
0.804999
0.804993
0.804985
0.804978
0.804971
0.804963
0.804954
0.804944
0.804934
0.804925
0.804913
0.804901
0.804889
0.804876
0.804864
0.804852
0.804837
0.804822
0.804807
0.804791
0.804777
0.804761
0.804744
0.804726
0.804709
0.804691
0.804673
0.804655
0.804636
0.804616
0.804597
0.804577
0.804557
0.804536
0.804515
0.804494
0.804472
0.804451
0.804429
0.804406
0.804384
0.804361
0.804339
0.804316
0.804292
0.804269
0.804246
0.804222
0.804199
0.804175
0.804152
0.804128
0.804104
0.80408
0.804055
0.804031
0.804007
0.803982
0.803958
0.803933
0.803909
0.803884
0.803859
0.803834
0.803809
0.803785
0.80376
0.803735
0.80371
0.803685
0.80366
0.803635
0.80361
0.803585
0.80356
0.803535
0.803511
0.803486
0.803461
0.803436
0.803411
0.803386
0.803362
0.803337
0.803312
0.803288
0.803263
0.803239
0.803215
0.803191
0.803167
0.803143
0.803119
0.803096
0.803073
0.80305
0.803028
0.803005
0.802983
0.802962
0.80294
0.802919
0.802898
0.802877
0.802856
0.802836
0.802816
0.802796
0.802777
0.802757
0.802739
0.80272
0.802702
0.802684
0.802666
0.802649
0.802631
0.802615
0.802598
0.802581
0.802565
0.802548
0.802532
0.802516
0.8025
0.802484
0.802468
0.802452
0.802436
0.80242
0.802404
0.802388
0.802372
0.802356
0.80234
0.802324
0.802309
0.802293
0.802278
0.802263
0.802248
0.802234
0.802219
0.802204
0.80219
0.802176
0.802161
0.802147
0.802133
0.802119
0.802105
0.802091
0.802077
0.802063
0.802049
0.802036
0.802022
0.802008
0.801995
0.801981
0.801968
0.801955
0.801941
0.801928
0.801915
0.801902
0.80189
0.801877
0.801864
0.801852
0.801839
0.801827
0.801815
0.801803
0.801791
0.801779
0.801767
0.801756
0.801745
0.801733
0.801723
0.801712
0.801701
0.801691
0.80168
0.80167
0.80166
0.80165
0.801641
0.801631
0.801622
0.801613
0.801604
0.801595
0.801586
0.801578
0.801569
0.801561
0.801553
0.801545
0.801538
0.80153
0.801522
0.801515
0.801507
0.8015
0.801493
0.801485
0.801478
0.801471
0.801464
0.801457
0.80145
0.801442
0.801435
0.801429
0.801421
0.801415
0.801407
0.801395
0.801389
0.801386
0.801374
0.801382
0.801381
0.801411
0.801408
0.801417
0.801413
0.801414
0.801409
0.801407
0.801403
0.801399
0.801394
0.801389
0.801384
0.801376
0.801371
0.801367
0.801359
0.801359
0.801356
0.801365
0.801361
0.80136
0.801356
0.801353
0.801349
0.801345
0.80134
0.801335
0.801328
0.801322
0.801319
0.80131
0.801308
0.8013
0.801276
0.801273
0.801277
0.801253
0.801315
0.801331
0.801543
0.801559
0.801634
0.801666
0.801694
0.801714
0.801729
0.801738
0.801744
0.801747
0.801749
0.80175
0.80175
0.801749
0.801748
0.801747
0.801745
0.801743
0.80174
0.801738
0.801735
0.801731
0.801728
0.801725
0.801721
0.801717
0.801713
0.801709
0.801705
0.801701
0.801697
0.801692
0.801687
0.801683
0.801677
0.801672
0.801667
0.801662
0.801656
0.801651
0.801645
0.80164
0.801635
0.801629
0.801624
0.801619
0.801614
0.801608
0.801603
0.801598
0.801592
0.801587
0.801582
0.801576
0.801571
0.801565
0.80156
0.801555
0.801549
0.801544
0.801538
0.801533
0.801528
0.801523
0.801518
0.801512
0.801507
0.801502
0.801497
0.801491
0.801486
0.80148
0.801475
0.80147
0.801464
0.801459
0.801454
0.801448
0.801432
0.80147
0.801327
0.328827
0.348346
0.253758
0.258813
0.27279
0.281273
0.2877
0.290911
0.292334
0.291473
0.288991
0.285415
0.282125
0.280153
0.280363
0.281347
0.280481
0.275455
0.267557
0.260535
0.256952
0.256072
0.255253
0.253258
0.251556
0.251485
0.250097
0.24469
0.236596
0.228546
0.223341
0.2205
0.217549
0.212737
0.207777
0.20538
0.205894
0.206171
0.202173
0.193305
0.183199
0.176536
0.175011
0.176127
0.176021
0.173012
0.167673
0.161663
0.157662
0.156724
0.157731
0.158455
0.158551
0.159317
0.162462
0.167778
0.173997
0.179805
0.185246
0.191987
0.20324
0.219572
0.242103
0.271566
0.307961
0.351032
0.402223
0.463503
0.533579
0.606786
0.675521
0.731501
0.777535
0.819453
0.860888
0.898545
0.92481
0.941396
0.951163
0.947074
0.923001
0.860968
0.705976
0.517176
0.294782
0.144308
0.0874185
0.0703341
0.0623275
0.0615281
0.0693846
0.0839247
0.106697
0.139541
0.181748
0.226052
0.261399
0.281215
0.277756
0.265936
0.228247
0.178171
0.125548
0.0896012
0.0800765
0.0577651
0.0432072
0.0405924
0.042269
0.041315
0.0404151
0.0444963
0.0518372
0.0633841
0.0752651
0.0822785
0.0789164
0.0705226
0.0615659
0.0573766
0.0518325
0.0452856
0.0481362
0.0420782
0.0365126
0.0360025
0.0346933
0.0337799
0.033898
0.0330271
0.0322849
0.0323202
0.0321902
0.0319858
0.0318243
0.0317864
0.031898
0.0319477
0.0319355
0.0319431
0.0321269
0.0323421
0.0324432
0.0325683
0.0327424
0.0328303
0.0328451
0.0329627
0.0332839
0.0336825
0.0339784
0.0340362
0.033818
0.0336497
0.0338871
0.034347
0.0345796
0.0344639
0.0343548
0.0345782
0.0349278
0.0350174
0.0348817
0.0349609
0.0353428
0.0355999
0.0355304
0.0354725
0.0357348
0.0361373
0.0362276
0.0359663
0.0358662
0.036175
0.0365038
0.0365212
0.0363274
0.0362168
0.0362838
0.0364247
0.0365374
0.0364665
0.0362967
0.0362688
0.0363668
0.0363191
0.0359804
0.0357369
0.0358101
0.0359327
0.0358179
0.0355918
0.0354716
0.0354127
0.0352977
0.0350834
0.0348993
0.0348204
0.0346761
0.0343267
0.0339867
0.0338557
0.0339108
0.0338728
0.0336112
0.0331774
0.0327865
0.0326794
0.0327013
0.0325457
0.0321831
0.0319248
0.031819
0.0317089
0.0314701
0.0310627
0.0307636
0.0306654
0.0306535
0.0306539
0.030424
0.0299676
0.0296206
0.0295495
0.0295929
0.029558
0.0294592
0.0293114
0.0290476
0.0288434
0.0288753
0.0289975
0.0290408
0.0289549
0.0287234
0.0286468
0.0288305
0.0290567
0.0291239
0.0291431
0.0292177
0.0293168
0.0293838
0.0294879
0.0295969
0.0295913
0.0298206
0.0300923
0.0300526
0.0299624
0.0300373
0.0301741
0.0302935
0.0302656
0.0303259
0.0304183
0.0303425
0.0302263
0.0303007
0.0304007
0.0303611
0.0301514
0.0300779
0.0301597
0.0302276
0.0302231
0.0301797
0.029952
0.0296858
0.0295928
0.0296414
0.0297149
0.0296947
0.0295687
0.0294067
0.0292261
0.029139
0.0290831
0.0289909
0.0288314
0.0288081
0.0288329
0.0286665
0.028419
0.0281953
0.0280667
0.0280337
0.0280182
0.0278965
0.0277361
0.0274823
0.0272602
0.027206
0.0271701
0.0270329
0.0268877
0.0267075
0.0265264
0.0264097
0.0262831
0.0261366
0.0259661
0.0257476
0.025606
0.0254497
0.0252693
0.0250254
0.0247718
0.024665
0.0244844
0.0242722
0.0240208
0.023781
0.0235824
0.0233748
0.0231487
0.0228897
0.0226511
0.0224502
0.0222237
0.0219798
0.0216947
0.0214335
0.021262
0.0210282
0.0207501
0.0204585
0.0202631
0.0200609
0.0198252
0.0195925
0.019343
0.0190923
0.0188595
0.0186359
0.0184221
0.0182149
0.0180066
0.0177891
0.0175761
0.0174084
0.0172466
0.0170728
0.0168954
0.016708
0.0165295
0.0163882
0.0162496
0.0161081
0.0159417
0.0157961
0.0156953
0.0155804
0.0154613
0.0153367
0.015227
0.0151426
0.015045
0.0149396
0.0148392
0.0147616
0.0146851
0.014605
0.0145312
0.0144497
0.0143817
0.0143287
0.0142677
0.0142077
0.0141457
0.0140771
0.0140202
0.0139699
0.0139207
0.0138668
0.0138197
0.0137823
0.0137423
0.0137032
0.0136605
0.0136126
0.0135722
0.0135398
0.013511
0.0134837
0.0134527
0.0134227
0.0133904
0.0133598
0.0133369
0.0133081
0.0132715
0.0132427
0.013231
0.0132046
0.0131783
0.013161
0.0131389
0.0131118
0.0130839
0.0130602
0.0130371
0.0130205
0.0130039
0.0129909
0.0129707
0.0129616
0.0129351
0.0129287
0.0129147
0.0129019
0.0128844
0.0128564
0.0128521
0.0128152
0.0127879
0.0127813
0.0127208
0.0126868
0.0127601
0.0126003
0.0126027
0.0125849
0.0123355
0.0123997
0.0129148
0.0125532
0.0132893
0.0147403
0.017785
0.0175598
0.0144607
0.0142369
0.0133555
0.0132162
0.0129827
0.01295
0.0128304
0.0127326
0.0126189
0.0125845
0.0124069
0.0124236
0.0126422
0.0124401
0.0126942
0.0132084
0.0142748
0.014148
0.012987
0.0129432
0.0126955
0.0125248
0.0125665
0.0125103
0.0124772
0.0124627
0.0124293
0.012385
0.012108
0.0121549
0.0123752
0.0123574
0.0128357
0.0132297
0.0149937
0.0225851
0.0285145
0.0500496
0.0483629
0.0362874
0.0283211
0.0232663
0.0201151
0.0180633
0.0167058
0.0157643
0.0150782
0.0145692
0.0141808
0.0138687
0.0136197
0.0134336
0.0132979
0.013196
0.0131106
0.013031
0.0129568
0.0128954
0.012847
0.012812
0.0127858
0.012766
0.0127493
0.0127316
0.0127144
0.0126951
0.0126726
0.0126484
0.0126226
0.0125969
0.012576
0.0125642
0.0125543
0.0125448
0.0125357
0.0125272
0.0125205
0.012515
0.0125103
0.0125067
0.0125044
0.0125025
0.0125005
0.0124985
0.0124955
0.0124888
0.0124804
0.0124731
0.012466
0.0124591
0.0124542
0.0124527
0.0124541
0.0124561
0.0124547
0.0124428
0.0124385
0.0124427
0.0124613
0.0125031
0.0125187
0.012481
0.0124398
0.0124517
0.012496
0.0125145
0.0124626
0.0124133
0.0124194
0.0124243
0.0124103
0.0123995
0.0124099
0.0124333
0.0124632
0.0122923
0.0123458
0.0123671
0.00994778
0.233844
0.166571
0.0722393
0.0735622
0.0776803
0.0796983
0.0810789
0.0814553
0.0812776
0.0803764
0.0789895
0.0772983
0.0757771
0.074716
0.074339
0.074105
0.0732918
0.0712649
0.0685216
0.0661706
0.0647825
0.0640347
0.0632438
0.0622701
0.0615497
0.0613736
0.0609652
0.0592276
0.0561284
0.0526492
0.0500993
0.0485145
0.0473363
0.0458468
0.044196
0.0430337
0.042572
0.0421423
0.0408799
0.0384256
0.0355864
0.0335187
0.0326324
0.0325431
0.0323558
0.0315542
0.0301949
0.0285748
0.0272684
0.0266231
0.0265421
0.0265574
0.0264879
0.0266331
0.0274675
0.0289325
0.0306627
0.0323217
0.033672
0.035386
0.0383362
0.0426473
0.0486037
0.0560829
0.0650529
0.0759602
0.0899918
0.107787
0.128771
0.151715
0.175394
0.198498
0.219772
0.238952
0.256985
0.274996
0.293798
0.313652
0.332186
0.346575
0.355837
0.360073
0.357759
0.348149
0.324496
0.26581
0.190932
0.107763
0.037582
0.0165068
0.0105336
0.0101399
0.0121771
0.0168596
0.0241835
0.0329279
0.0413623
0.0466323
0.0465776
0.0434237
0.039503
0.0341611
0.0303898
0.0250664
0.0192752
0.0125538
0.00823918
0.00663017
0.00571542
0.00454376
0.00360382
0.00335983
0.00328531
0.00362744
0.00439804
0.0052174
0.00564226
0.00553491
0.00516145
0.00463628
0.00442423
0.00439779
0.00462653
0.00403017
0.00328016
0.00321735
0.00282794
0.00255807
0.00250053
0.00239315
0.00230164
0.00229214
0.00227144
0.00224512
0.00223834
0.00224345
0.00225047
0.00224732
0.00224517
0.0022445
0.00225506
0.00226804
0.00227539
0.00228643
0.00230002
0.00230689
0.002311
0.00232429
0.00234891
0.00237478
0.00239374
0.00240039
0.00239206
0.00238597
0.00240228
0.0024313
0.00244554
0.00243858
0.00243521
0.00245388
0.00247896
0.00248617
0.00247731
0.00248247
0.00251023
0.00253141
0.00252938
0.00252416
0.00254096
0.00257074
0.00257946
0.00256139
0.00255386
0.00257655
0.00259873
0.00259811
0.00258581
0.00257919
0.00258059
0.00258527
0.00259012
0.00258664
0.00257821
0.00257669
0.00257973
0.0025712
0.00254289
0.00252145
0.00252257
0.00252832
0.0025199
0.0025046
0.00249449
0.00248395
0.00246607
0.00244302
0.00242854
0.00242462
0.00241246
0.00238228
0.00235209
0.00233751
0.00233854
0.00233224
0.00230812
0.00227431
0.00224724
0.00223884
0.00223467
0.00221703
0.00218952
0.00217157
0.00216119
0.00214782
0.00212746
0.00209886
0.00207724
0.00206727
0.00206303
0.00206011
0.00204309
0.00201415
0.00199166
0.00198384
0.0019829
0.00197809
0.00196994
0.00195977
0.00194406
0.00193127
0.00193091
0.00193607
0.00193733
0.00193208
0.00191891
0.00191329
0.00192273
0.00193874
0.00194834
0.00195318
0.00195675
0.00196084
0.00196658
0.00197635
0.00198516
0.00198804
0.00200488
0.00202387
0.0020238
0.00201933
0.0020249
0.00203404
0.00204308
0.00204377
0.00204632
0.00205099
0.00204912
0.00204714
0.00205426
0.00205687
0.00205009
0.00203814
0.00203621
0.00204187
0.00204629
0.0020456
0.00204133
0.00202655
0.00201059
0.00200552
0.00200865
0.00201133
0.0020076
0.00199899
0.00199104
0.00198124
0.00197397
0.00196711
0.00196039
0.00195172
0.00194964
0.00195032
0.00193871
0.00192296
0.0019106
0.00190333
0.00189926
0.00189582
0.001887
0.00187709
0.00186328
0.00185066
0.00184586
0.00184148
0.00183151
0.00182238
0.00181291
0.00180264
0.00179393
0.00178473
0.00177505
0.00176466
0.00175284
0.00174353
0.00173222
0.00172099
0.00170792
0.0016937
0.0016859
0.00167411
0.00166143
0.00164767
0.0016345
0.00162214
0.00160967
0.0015968
0.00158302
0.00157008
0.00155798
0.00154501
0.00153176
0.00151768
0.00150461
0.00149443
0.00148147
0.00146779
0.00145423
0.0014437
0.00143303
0.00142142
0.0014099
0.00139837
0.00138715
0.0013764
0.00136607
0.00135639
0.00134715
0.00133801
0.00132893
0.00132018
0.00131259
0.00130549
0.00129838
0.00129116
0.00128398
0.00127733
0.00127174
0.00126623
0.00126084
0.00125517
0.0012501
0.0012461
0.00124183
0.00123771
0.00123366
0.00122994
0.00122678
0.00122347
0.0012204
0.00121756
0.00121497
0.00121224
0.00120982
0.0012077
0.00120536
0.00120345
0.00120171
0.00119977
0.00119812
0.00119639
0.00119455
0.00119301
0.00119161
0.00119031
0.00118892
0.0011877
0.00118655
0.00118538
0.00118444
0.0011834
0.00118225
0.00118128
0.00118052
0.00117984
0.00117905
0.00117813
0.0011774
0.00117665
0.00117588
0.00117528
0.00117451
0.00117378
0.0011732
0.00117276
0.00117195
0.00117138
0.0011709
0.00117035
0.00116975
0.00116914
0.00116865
0.0011681
0.00116776
0.00116724
0.00116689
0.00116633
0.00116642
0.00116573
0.0011651
0.00116583
0.00116537
0.0011639
0.00116251
0.00116199
0.0011609
0.00116003
0.00116177
0.00116263
0.00116025
0.001162
0.00115416
0.00115717
0.00116816
0.00117818
0.00118564
0.00119358
0.00121869
0.00123133
0.00121801
0.00125455
0.00123316
0.00119046
0.00118277
0.00117348
0.00116977
0.00116709
0.0011646
0.00116401
0.0011581
0.00115768
0.00116259
0.0011642
0.00116703
0.00117061
0.00117848
0.00118285
0.00117404
0.00118377
0.00117509
0.00116677
0.00116195
0.00116067
0.00115445
0.00115718
0.00115723
0.00116005
0.0011712
0.00117095
0.0011921
0.00118828
0.00123109
0.0012549
0.00136993
0.00143142
0.00146498
0.00181903
0.00212053
0.00218874
0.00297186
0.00245661
0.00191328
0.0016396
0.00148039
0.00138691
0.00132797
0.00128863
0.00126026
0.00123921
0.00122347
0.00121141
0.00120205
0.00119498
0.00118956
0.00118517
0.00118134
0.00117798
0.00117509
0.00117289
0.00117132
0.00117034
0.00116982
0.00116953
0.00116927
0.00116889
0.00116834
0.0011676
0.0011668
0.00116608
0.00116539
0.00116482
0.00116438
0.0011641
0.0011639
0.00116354
0.00116304
0.00116246
0.00116189
0.00116147
0.00116128
0.00116133
0.00116157
0.00116187
0.00116209
0.00116217
0.0011622
0.00116226
0.00116241
0.0011626
0.00116269
0.00116253
0.00116218
0.00116189
0.00116182
0.0011621
0.00116271
0.00116336
0.00116392
0.00116471
0.0011653
0.00116545
0.00116553
0.00116507
0.00116495
0.00116582
0.00116654
0.00116623
0.00116488
0.00116479
0.00116651
0.00116714
0.00116569
0.00116515
0.00116734
0.00116791
0.00116627
0.00116664
0.0011747
0.00118173
0.00120114
0.00114172
0.167362
0.136487
0.0287898
0.0276334
0.0273849
0.0270394
0.0266998
0.0262878
0.0258267
0.0252612
0.0246128
0.0239053
0.0232485
0.0227151
0.0223519
0.0220202
0.0216018
0.0209905
0.0202476
0.0195433
0.0189797
0.0185459
0.0181527
0.0177908
0.0175026
0.017312
0.0170839
0.0166016
0.0157679
0.014761
0.0138788
0.0132531
0.0128285
0.0124433
0.0120121
0.0115972
0.0112587
0.0109561
0.0106226
0.0101899
0.00971427
0.00929768
0.00898393
0.00875062
0.00855464
0.00836454
0.00815114
0.00790407
0.0076628
0.00746139
0.00733907
0.00730536
0.00732163
0.00738314
0.00754603
0.00783291
0.00820619
0.00858633
0.00893175
0.00937121
0.0100465
0.0110545
0.0124333
0.0141604
0.0162855
0.0190877
0.0229086
0.027813
0.0337781
0.0408546
0.0490931
0.0584346
0.0684747
0.078517
0.0878882
0.0963065
0.104229
0.112964
0.123083
0.134324
0.145861
0.156203
0.163519
0.16792
0.171566
0.174708
0.171881
0.163361
0.1475
0.111193
0.0649998
0.0261522
0.0139067
0.00844273
0.00647326
0.00600826
0.00607492
0.00660209
0.00706526
0.00723508
0.00704573
0.00645864
0.0059704
0.00591502
0.00617191
0.00708416
0.00797443
0.00826026
0.00780715
0.00597994
0.00415189
0.00335422
0.00265042
0.00222037
0.00189447
0.00169712
0.00159269
0.00160966
0.00168051
0.00173888
0.00176641
0.00183602
0.00192202
0.00212008
0.00232767
0.00245651
0.00218217
0.00183215
0.00171977
0.00158063
0.00149611
0.00142905
0.001385
0.00135142
0.00133976
0.00133122
0.00133195
0.00133028
0.00132898
0.00132782
0.00132594
0.00132566
0.00132601
0.00132709
0.00132919
0.00133062
0.00133075
0.00133103
0.00133237
0.00133455
0.00133686
0.00133904
0.00134044
0.00134037
0.00134013
0.00134141
0.00134301
0.00134334
0.00134325
0.00134377
0.00134483
0.001346
0.00134572
0.00134429
0.00134339
0.00134392
0.00134443
0.001343
0.00134105
0.00134042
0.00134023
0.00133798
0.00133464
0.00133349
0.00133348
0.00133134
0.00132745
0.00132418
0.00132223
0.00132027
0.00131725
0.00131377
0.00131014
0.00130639
0.00130261
0.00129876
0.00129441
0.00128996
0.0012859
0.00128178
0.00127681
0.00127215
0.00126838
0.00126374
0.00125745
0.0012508
0.00124573
0.00124227
0.00123859
0.00123288
0.0012264
0.00122107
0.00121716
0.00121331
0.00120851
0.00120328
0.00119812
0.0011928
0.00118793
0.00118389
0.00118002
0.00117582
0.00117149
0.00116753
0.00116362
0.00115917
0.00115492
0.00115151
0.00114846
0.0011452
0.00114146
0.00113819
0.00113567
0.00113301
0.00112987
0.00112678
0.00112455
0.0011231
0.00112171
0.00112014
0.0011183
0.00111677
0.00111599
0.00111531
0.00111385
0.00111284
0.00111328
0.00111427
0.00111474
0.00111448
0.00111409
0.0011146
0.00111598
0.00111733
0.00111832
0.00111917
0.00112005
0.00112049
0.00112067
0.00112142
0.00112269
0.00112378
0.00112428
0.00112405
0.00112397
0.00112453
0.0011253
0.00112573
0.00112563
0.00112511
0.00112455
0.00112422
0.00112429
0.00112408
0.00112364
0.00112328
0.00112312
0.00112245
0.00112155
0.00112117
0.00112104
0.0011203
0.00111868
0.00111714
0.00111679
0.0011169
0.00111628
0.00111491
0.00111379
0.00111314
0.00111235
0.00111095
0.00110991
0.00110929
0.00110849
0.00110757
0.00110606
0.00110448
0.00110371
0.00110314
0.00110206
0.00110096
0.0010999
0.00109847
0.00109704
0.00109621
0.00109529
0.001094
0.00109282
0.0010917
0.00109047
0.00108922
0.00108788
0.00108634
0.00108508
0.00108393
0.00108258
0.00108089
0.00107942
0.00107819
0.00107685
0.00107535
0.0010737
0.0010721
0.00107072
0.00106926
0.00106767
0.00106599
0.00106457
0.0010631
0.0010614
0.00105997
0.00105851
0.00105693
0.00105552
0.00105404
0.00105251
0.00105114
0.0010498
0.00104844
0.00104706
0.00104578
0.00104457
0.0010433
0.00104207
0.00104096
0.00103992
0.00103889
0.00103791
0.00103695
0.001036
0.00103512
0.0010343
0.00103353
0.00103277
0.00103206
0.00103145
0.00103084
0.00103024
0.00102972
0.00102912
0.00102857
0.00102819
0.00102781
0.00102744
0.00102704
0.00102665
0.0010263
0.00102599
0.00102573
0.00102547
0.00102516
0.00102486
0.00102465
0.00102447
0.00102424
0.001024
0.00102377
0.00102359
0.00102339
0.00102319
0.00102298
0.00102277
0.00102258
0.00102242
0.00102225
0.00102205
0.00102185
0.00102167
0.00102148
0.00102129
0.00102108
0.00102089
0.00102072
0.00102053
0.00102034
0.00102013
0.00101994
0.00101973
0.00101952
0.00101931
0.00101911
0.00101893
0.00101875
0.00101856
0.00101837
0.00101816
0.00101795
0.00101775
0.00101755
0.00101735
0.00101716
0.00101697
0.00101674
0.00101657
0.00101646
0.00101623
0.00101614
0.0010157
0.00101519
0.00101496
0.00101478
0.00101543
0.00101538
0.00101806
0.00101673
0.00101864
0.00101782
0.00101926
0.00102156
0.00103705
0.00103349
0.0010195
0.0010202
0.00102101
0.00102092
0.0010202
0.0010192
0.00101395
0.00101384
0.00101461
0.00101592
0.00101518
0.00101647
0.00101549
0.00101525
0.00101545
0.00101828
0.00102098
0.00102014
0.00101446
0.00101471
0.00101516
0.0010146
0.00101453
0.00101392
0.00101396
0.00101297
0.00101266
0.00101167
0.00101261
0.00101284
0.00103318
0.0010238
0.00101285
0.00104714
0.00104997
0.00110186
0.00112283
0.00123915
0.00121986
0.00111238
0.00111961
0.00111126
0.00109547
0.00108991
0.00108556
0.00105965
0.00106811
0.00105711
0.00104482
0.00103661
0.00103021
0.00102522
0.00102127
0.00101809
0.00101552
0.00101344
0.00101176
0.00101039
0.00100928
0.00100838
0.00100769
0.00100719
0.00100686
0.00100664
0.00100648
0.00100637
0.00100632
0.00100629
0.00100631
0.00100642
0.00100659
0.0010068
0.00100705
0.0010073
0.00100752
0.00100769
0.00100782
0.00100788
0.00100792
0.00100795
0.00100802
0.00100814
0.00100829
0.00100848
0.00100866
0.00100881
0.00100891
0.00100897
0.00100901
0.00100907
0.00100917
0.00100929
0.00100939
0.00100943
0.00100941
0.00100939
0.00100944
0.00100957
0.00100973
0.00100983
0.00100983
0.00100975
0.00100963
0.00100951
0.00100941
0.00100937
0.00100945
0.00100968
0.00100991
0.00100987
0.00100959
0.00100944
0.00100971
0.00101016
0.00101006
0.00100946
0.0010092
0.00100943
0.00100946
0.00100902
0.00100905
0.00100956
0.00100983
0.00101032
0.00102268
0.00103508
0.00106448
0.00102953
0.11422
0.110158
0.0165141
0.0147979
0.0135331
0.0127838
0.0121656
0.011712
0.0113466
0.0110184
0.0106827
0.0103266
0.00998757
0.00970782
0.00950359
0.00934404
0.00918603
0.00898554
0.00873759
0.00846728
0.00821016
0.0080066
0.00785743
0.00774485
0.00763776
0.00751297
0.00736408
0.00718466
0.00696124
0.0067087
0.00646209
0.00624429
0.00606401
0.00591543
0.0057769
0.00563322
0.0054794
0.0053327
0.00521218
0.00512746
0.00506462
0.00498662
0.00487586
0.00474834
0.00463017
0.00455079
0.00450994
0.00448851
0.0044662
0.00443111
0.00439125
0.00437085
0.00438381
0.00442348
0.00448084
0.00456083
0.00466376
0.00476417
0.00484341
0.00492426
0.00505247
0.00525356
0.00552085
0.00585092
0.00627857
0.00690439
0.00780903
0.00899531
0.0104735
0.012323
0.0146474
0.0174435
0.0205495
0.0237575
0.0269668
0.0302676
0.0336787
0.0372687
0.0413218
0.0461803
0.0520696
0.05887
0.0662316
0.0740952
0.08202
0.0893936
0.0960894
0.100908
0.104409
0.105549
0.104138
0.0970642
0.0772183
0.0529721
0.0267969
0.0149582
0.00904447
0.00605228
0.00441548
0.0034044
0.00285726
0.00258197
0.00244386
0.0024431
0.00258304
0.00293457
0.00352259
0.00434186
0.00536696
0.00655196
0.00734009
0.0072919
0.00571259
0.0041423
0.0033648
0.00265064
0.00221407
0.0018623
0.00163192
0.00150106
0.00148307
0.00152619
0.00158384
0.0016335
0.00173088
0.00184229
0.00205373
0.00227053
0.00241322
0.00217093
0.00183727
0.00172164
0.00158447
0.00149884
0.00141139
0.00139988
0.00136885
0.00133989
0.00132347
0.00131754
0.00131134
0.00130749
0.00130742
0.00130703
0.00130706
0.00130726
0.0013065
0.00130601
0.00130681
0.00130831
0.00131005
0.00131092
0.00131066
0.00130994
0.00131014
0.0013117
0.00131356
0.00131437
0.0013132
0.00131152
0.00131133
0.00131223
0.00131229
0.00131059
0.0013084
0.00130812
0.00130822
0.00130625
0.00130302
0.00130126
0.0013008
0.00129915
0.00129599
0.00129333
0.00129202
0.00128987
0.00128609
0.00128287
0.00128124
0.00127933
0.0012755
0.00127096
0.00126768
0.00126441
0.00126043
0.00125697
0.00125438
0.00125071
0.00124535
0.0012403
0.00123591
0.00123191
0.00122826
0.00122423
0.00121964
0.00121456
0.00120953
0.00120498
0.00120112
0.00119704
0.00119229
0.00118743
0.00118291
0.00117921
0.00117566
0.00117141
0.00116654
0.00116153
0.0011574
0.00115433
0.00115131
0.00114728
0.0011429
0.00113925
0.00113615
0.00113314
0.00113006
0.00112691
0.00112325
0.00111971
0.00111714
0.0011151
0.00111311
0.00111063
0.00110766
0.00110482
0.00110254
0.00110111
0.0011002
0.00109921
0.00109782
0.0010961
0.00109471
0.00109391
0.00109313
0.00109242
0.0010923
0.00109233
0.00109195
0.00109148
0.00109164
0.00109251
0.00109312
0.00109316
0.00109369
0.00109429
0.00109397
0.00109363
0.00109434
0.00109562
0.0010963
0.00109651
0.00109669
0.00109661
0.00109635
0.00109652
0.00109704
0.00109703
0.00109644
0.00109633
0.00109664
0.00109688
0.00109695
0.00109629
0.00109538
0.00109492
0.00109479
0.00109469
0.00109465
0.00109442
0.0010938
0.00109285
0.00109206
0.00109141
0.00109083
0.00109053
0.00109026
0.00108984
0.00108903
0.00108824
0.00108727
0.00108618
0.00108587
0.00108585
0.00108528
0.00108407
0.00108294
0.00108222
0.00108187
0.00108139
0.00108043
0.00107957
0.0010788
0.00107793
0.00107716
0.00107646
0.00107552
0.00107464
0.00107388
0.0010731
0.00107227
0.00107136
0.00107038
0.00106935
0.00106856
0.00106767
0.00106671
0.00106565
0.00106447
0.00106354
0.00106261
0.00106152
0.00106039
0.00105932
0.00105826
0.00105715
0.001056
0.0010548
0.00105375
0.00105274
0.00105158
0.00105033
0.00104917
0.00104804
0.00104703
0.00104598
0.00104481
0.00104366
0.00104265
0.00104165
0.00104065
0.00103962
0.00103862
0.00103773
0.00103684
0.00103586
0.001035
0.0010342
0.00103342
0.00103268
0.00103195
0.00103126
0.00103058
0.00102998
0.00102938
0.00102875
0.00102822
0.00102774
0.00102726
0.00102682
0.00102638
0.00102592
0.00102554
0.00102522
0.00102491
0.0010246
0.00102429
0.00102397
0.00102365
0.00102342
0.00102324
0.00102301
0.00102274
0.00102253
0.00102235
0.00102216
0.00102198
0.00102178
0.00102157
0.0010214
0.00102123
0.00102104
0.00102086
0.00102067
0.00102051
0.00102034
0.00102017
0.00101998
0.00101979
0.00101961
0.00101944
0.00101926
0.00101908
0.00101889
0.00101872
0.00101852
0.00101832
0.00101811
0.00101791
0.00101772
0.00101753
0.00101734
0.00101715
0.00101698
0.00101679
0.00101661
0.00101641
0.00101621
0.00101603
0.00101582
0.00101561
0.00101544
0.0010153
0.00101509
0.00101511
0.00101464
0.00101417
0.00101397
0.00101523
0.00101438
0.00101417
0.00101693
0.00101583
0.00101766
0.00101727
0.00101849
0.00102119
0.00103806
0.00103394
0.00101824
0.00101872
0.00101908
0.00101888
0.00101781
0.00101647
0.00101159
0.00101156
0.0010123
0.00101466
0.0010145
0.00101574
0.00101484
0.00101503
0.00101547
0.00102215
0.00102041
0.00101657
0.00101369
0.00101373
0.00101402
0.00101361
0.00101298
0.00101251
0.00101228
0.00101113
0.00101158
0.00101025
0.00100933
0.00101112
0.00103261
0.00102692
0.00104606
0.00104656
0.00108551
0.00111118
0.00115797
0.0012563
0.00123323
0.00111597
0.001118
0.00110442
0.00108266
0.00106084
0.00104353
0.00101919
0.00101664
0.00102418
0.00102653
0.00102741
0.00102647
0.00102428
0.00102183
0.0010195
0.00101735
0.00101539
0.00101357
0.00101196
0.00101059
0.00100941
0.00100839
0.00100753
0.00100686
0.00100637
0.00100603
0.00100579
0.00100558
0.00100535
0.0010051
0.0010049
0.00100475
0.0010047
0.00100478
0.00100493
0.00100512
0.00100533
0.00100553
0.00100568
0.00100578
0.00100584
0.00100587
0.0010059
0.00100595
0.00100604
0.00100617
0.00100633
0.00100649
0.00100664
0.00100675
0.00100683
0.00100688
0.00100694
0.00100703
0.00100715
0.00100728
0.00100735
0.00100736
0.00100733
0.00100734
0.00100745
0.00100762
0.00100775
0.00100774
0.00100763
0.00100749
0.00100737
0.00100731
0.00100732
0.00100736
0.00100747
0.00100758
0.00100757
0.00100743
0.00100737
0.00100765
0.00100806
0.00100797
0.0010073
0.00100695
0.00100734
0.00100762
0.00100698
0.00100659
0.0010072
0.00100756
0.00100716
0.00100785
0.00102068
0.00103329
0.00106325
0.00102794
0.0832131
0.0819873
0.0129413
0.0112356
0.0098921
0.00913375
0.00850189
0.00810656
0.007855
0.00767274
0.00746193
0.0071884
0.00691208
0.00671343
0.00661025
0.00656658
0.00653062
0.00645497
0.00631926
0.00614485
0.00597458
0.00584397
0.00576882
0.00573248
0.00570993
0.00567258
0.00561063
0.00552409
0.0054061
0.0052739
0.00515729
0.00506918
0.00500299
0.00493996
0.0048638
0.00476198
0.00464259
0.00453642
0.00447166
0.0044524
0.00445029
0.00443304
0.00438512
0.00430509
0.00421087
0.00413201
0.00409231
0.00408574
0.00409788
0.00411681
0.00412513
0.00412026
0.00412015
0.00414489
0.0041957
0.00425741
0.00431409
0.00435823
0.0043928
0.00441944
0.00444742
0.00448231
0.00451838
0.00455822
0.00461959
0.00472655
0.00488965
0.00509038
0.00533128
0.00565055
0.00609827
0.00669546
0.00743359
0.00828812
0.00919196
0.0100587
0.0108525
0.0117153
0.0128501
0.0143194
0.0161883
0.0186276
0.0219012
0.0263677
0.0321139
0.0387267
0.0457211
0.0528472
0.05948
0.0649464
0.0692066
0.0722925
0.0739701
0.0738486
0.0702328
0.0586355
0.0440858
0.0268206
0.0153212
0.00949407
0.00633793
0.00443122
0.003292
0.00259746
0.00224127
0.00209115
0.00213451
0.00233855
0.0027213
0.00329832
0.0040992