/*--------------------------------*- C++ -*----------------------------------*\
| =========                 |                                                 |
| \\      /  F ield         | OpenFOAM: The Open Source CFD Toolbox           |
|  \\    /   O peration     | Version:  v2006                                 |
|   \\  /    A nd           | Website:  www.openfoam.com                      |
|    \\/     M anipulation  |                                                 |
\*---------------------------------------------------------------------------*/
FoamFile
{
    version     2.0;
    format      ascii;
    class       volScalarField;
    location    "4";
    object      p;
}
// * * * * * * * * * * * * * * * * * * * * * * * * * * * * * * * * * * * * * //

dimensions      [1 -1 -2 0 0 0 0];


internalField   nonuniform List<scalar> 
33000
(
7754.44
7722.14
7711.96
7696.96
7683.33
7670.65
7658.73
7647.35
7636.38
7625.7
7615.23
7604.92
7594.72
7584.61
7574.58
7564.6
7554.68
7544.81
7534.99
7525.22
7515.49
7505.8
7496.16
7486.59
7477.08
7467.63
7458.27
7448.97
7439.74
7430.58
7421.5
7412.51
7403.63
7394.85
7386.16
7377.57
7369.07
7360.69
7352.46
7344.36
7336.37
7328.49
7320.74
7313.12
7305.66
7298.36
7291.21
7284.2
7277.33
7270.61
7264.04
7257.65
7251.44
7245.39
7239.49
7233.77
7228.25
7222.92
7217.79
7212.8
7208.01
7203.41
7199.03
7194.88
7190.96
7187.21
7183.64
7180.3
7177.19
7174.35
7171.73
7169.22
7166.67
7164.1
7161.83
7160.3
7159.41
7155.4
7146.06
7140.17
7141.63
7137.11
7136.42
7133.14
7130.38
7128.89
7127.82
7126.75
7125.15
7124.17
7122.93
7121.99
7121.14
7120.58
7119.68
7119.15
7117.49
7115.94
7112.38
7110.63
7112.76
7112.38
7113.34
7114.32
7115.74
7117.82
7120.5
7123.19
7125.97
7129.04
7132.36
7135.85
7139.58
7143.68
7147.38
7151.62
7154
7158.76
7166.62
7172.71
7179.82
7187.28
7195.01
7203.51
7212.7
7222.14
7232.06
7242.35
7253.01
7264.13
7275.64
7287.46
7299.65
7312.15
7324.96
7338.07
7351.48
7365.18
7379.14
7393.38
7407.86
7422.57
7437.51
7452.63
7467.92
7483.36
7498.94
7514.63
7530.4
7546.23
7562.1
7577.99
7593.89
7609.76
7625.58
7641.32
7656.98
7672.53
7687.96
7703.23
7718.34
7733.25
7747.98
7762.49
7776.77
7790.8
7804.57
7818.08
7831.3
7844.22
7856.83
7869.13
7881.12
7892.77
7904.09
7915.06
7925.69
7935.98
7945.92
7955.51
7964.76
7973.66
7982.24
7990.48
7998.4
8006
8013.3
8020.31
8027.05
8033.51
8039.71
8045.68
8051.42
8056.96
8062.29
8067.45
8072.44
8077.29
8081.98
8086.51
8090.87
8095.03
8098.97
8102.69
8106.18
8109.42
8112.42
8115.15
8117.61
8119.79
8121.7
8123.32
8124.66
8125.71
8126.47
8126.95
8127.15
8127.06
8126.68
8126.03
8125.11
8123.92
8122.48
8120.79
8118.85
8116.67
8114.27
8111.65
8108.82
8105.79
8102.58
8099.19
8095.63
8091.92
8088.06
8084.07
8079.96
8075.74
8071.41
8067
8062.51
8057.94
8053.32
8048.65
8043.94
8039.21
8034.44
8029.66
8024.88
8020.09
8015.32
8010.55
8005.81
8001.09
7996.4
7991.75
7987.13
7982.56
7978.04
7973.56
7969.14
7964.78
7960.47
7956.22
7952.02
7947.89
7943.83
7939.82
7935.89
7932.01
7928.2
7924.46
7920.77
7917.16
7913.61
7910.12
7906.69
7903.33
7900.03
7896.79
7893.61
7890.48
7887.42
7884.42
7881.47
7878.58
7875.74
7872.95
7870.22
7867.54
7864.91
7862.33
7859.8
7857.31
7854.87
7852.48
7850.13
7847.83
7845.56
7843.34
7841.16
7839.02
7836.92
7834.86
7832.83
7830.84
7828.89
7826.97
7825.08
7823.23
7821.41
7819.62
7817.86
7816.14
7814.44
7812.77
7811.13
7809.51
7807.92
7806.36
7804.83
7803.32
7801.83
7800.36
7798.93
7797.51
7796.11
7794.74
7793.39
7792.05
7790.74
7789.45
7788.18
7786.93
7785.69
7784.48
7783.28
7782.1
7780.93
7779.79
7778.66
7777.55
7776.45
7775.37
7774.3
7773.25
7772.22
7771.2
7770.19
7769.2
7768.23
7767.27
7766.32
7765.39
7764.47
7763.56
7762.67
7761.79
7760.93
7760.07
7759.24
7758.41
7757.6
7756.79
7756.01
7755.23
7754.47
7753.71
7752.98
7752.25
7751.53
7750.83
7750.14
7749.45
7748.78
7748.13
7747.48
7746.84
7746.22
7745.6
7745
7744.4
7743.82
7743.25
7742.69
7742.13
7741.59
7741.06
7740.54
7740.02
7739.52
7739.03
7738.54
7738.06
7737.6
7737.14
7736.69
7736.25
7735.82
7735.4
7734.99
7734.58
7734.18
7733.79
7733.41
7733.04
7732.68
7732.32
7731.97
7731.63
7731.3
7730.97
7730.65
7730.34
7730.04
7729.75
7729.46
7729.18
7728.91
7728.64
7728.39
7728.13
7727.89
7727.65
7727.42
7727.2
7726.98
7726.77
7726.56
7726.37
7726.18
7725.98
7725.8
7725.62
7725.45
7725.29
7725.13
7724.97
7724.83
7724.68
7724.55
7724.42
7724.29
7724.17
7724.05
7723.94
7723.83
7723.74
7723.64
7723.54
7723.45
7723.36
7723.28
7723.19
7723.13
7723.05
7722.99
7722.93
7722.87
7722.82
7722.77
7722.73
7722.69
7722.65
7722.62
7722.58
7722.56
7722.53
7722.51
7722.51
7722.49
7722.48
7722.47
7722.46
7722.44
7722.43
7722.43
7722.42
7722.41
7722.41
7722.41
7722.41
7722.41
7722.41
7722.41
7722.42
7722.43
7722.43
7722.44
7722.46
7722.47
7722.48
7722.5
7722.52
7722.54
7722.56
7722.58
7722.6
7722.63
7722.65
7722.68
7722.71
7722.74
7722.77
7722.8
7722.84
7722.87
7722.91
7722.95
7722.99
7723.03
7723.07
7723.12
7723.16
7723.21
7723.25
7723.3
7723.35
7723.4
7723.46
7723.51
7723.56
7723.62
7723.68
7723.74
7723.79
7723.85
7723.92
7723.98
7724.04
7724.11
7724.17
7724.24
7724.31
7724.38
7724.45
7724.52
7724.59
7724.66
7724.74
7724.81
7724.89
7724.97
7725.05
7725.13
7725.21
7725.29
7725.38
7725.44
7725.58
7554.91
7523.54
7513.6
7497.69
7484.34
7472.18
7460.76
7449.81
7439.16
7428.71
7418.42
7408.22
7398.11
7388.07
7378.08
7368.15
7358.25
7348.4
7338.58
7328.81
7319.08
7309.4
7299.78
7290.22
7280.71
7271.26
7261.87
7252.56
7243.33
7234.18
7225.09
7216.1
7207.2
7198.4
7189.7
7181.1
7172.62
7164.25
7155.99
7147.87
7139.85
7131.96
7124.22
7116.61
7109.13
7101.81
7094.64
7087.62
7080.75
7074.03
7067.47
7061.08
7054.85
7048.8
7042.91
7037.18
7031.66
7026.35
7021.18
7016.16
7011.36
7006.75
7002.36
6998.19
6994.21
6990.39
6986.77
6983.36
6980.14
6977.13
6974.29
6971.59
6969.05
6966.62
6964.16
6961.51
6958.67
6955.97
6954.2
6953.3
6948.06
6936.69
6933.42
6938.27
6935.26
6934.49
6932.11
6930.67
6927.37
6927.12
6926.22
6925.31
6924.41
6923.5
6922.55
6921.94
6920.92
6919.76
6918.18
6915.75
6915.16
6912.56
6913.25
6918.66
6920.17
6922.37
6924.11
6926.5
6928.66
6931.9
6935.68
6939.32
6943.16
6947.13
6951.17
6955.55
6960.04
6964.82
6970.44
6973.88
6980.61
6990.58
6998.61
7007.29
7016.05
7025.14
7035
7045.55
7056.3
7067.46
7078.92
7090.72
7102.93
7115.48
7128.31
7141.44
7154.84
7168.55
7182.52
7196.77
7211.27
7226.01
7240.96
7256.1
7271.42
7286.89
7302.5
7318.2
7334
7349.85
7365.75
7381.67
7397.59
7413.48
7429.32
7445.08
7460.76
7476.34
7491.78
7507.07
7522.19
7537.13
7551.86
7566.39
7580.68
7594.72
7608.51
7622.02
7635.25
7648.18
7660.81
7673.12
7685.11
7696.77
7708.09
7719.07
7729.71
7740
7749.94
7759.54
7768.8
7777.72
7786.29
7794.53
7802.45
7810.06
7817.37
7824.39
7831.12
7837.59
7843.81
7849.78
7855.53
7861.07
7866.41
7871.58
7876.59
7881.44
7886.14
7890.68
7895.04
7899.21
7903.17
7906.9
7910.4
7913.65
7916.65
7919.39
7921.86
7924.04
7925.96
7927.58
7928.92
7929.97
7930.73
7931.21
7931.4
7931.3
7930.92
7930.27
7929.34
7928.15
7926.69
7924.99
7923.04
7920.85
7918.43
7915.8
7912.96
7909.92
7906.69
7903.28
7899.71
7895.98
7892.11
7888.1
7883.98
7879.74
7875.4
7870.97
7866.46
7861.89
7857.25
7852.57
7847.85
7843.1
7838.32
7833.53
7828.73
7823.94
7819.15
7814.38
7809.63
7804.9
7800.21
7795.55
7790.93
7786.35
7781.82
7777.34
7772.92
7768.55
7764.23
7759.98
7755.78
7751.65
7747.58
7743.58
7739.64
7735.76
7731.95
7728.21
7724.52
7720.91
7717.36
7713.87
7710.44
7707.08
7703.78
7700.54
7697.36
7694.24
7691.18
7688.17
7685.22
7682.33
7679.5
7676.71
7673.98
7671.3
7668.67
7666.09
7663.56
7661.08
7658.64
7656.25
7653.9
7651.59
7649.33
7647.11
7644.93
7642.79
7640.69
7638.63
7636.61
7634.62
7632.66
7630.74
7628.86
7627.01
7625.19
7623.4
7621.64
7619.91
7618.22
7616.55
7614.9
7613.29
7611.7
7610.14
7608.61
7607.1
7605.61
7604.15
7602.71
7601.29
7599.89
7598.52
7597.17
7595.84
7594.52
7593.23
7591.96
7590.71
7589.47
7588.26
7587.06
7585.88
7584.71
7583.57
7582.44
7581.33
7580.23
7579.15
7578.08
7577.03
7576
7574.98
7573.97
7572.98
7572.01
7571.04
7570.1
7569.16
7568.25
7567.34
7566.45
7565.57
7564.7
7563.85
7563.01
7562.19
7561.37
7560.57
7559.78
7559.01
7558.24
7557.49
7556.75
7556.02
7555.31
7554.6
7553.91
7553.23
7552.56
7551.9
7551.26
7550.62
7549.99
7549.38
7548.77
7548.18
7547.6
7547.03
7546.46
7545.91
7545.37
7544.84
7544.31
7543.8
7543.3
7542.8
7542.32
7541.84
7541.38
7540.92
7540.47
7540.03
7539.6
7539.18
7538.77
7538.36
7537.96
7537.57
7537.19
7536.82
7536.46
7536.1
7535.75
7535.41
7535.08
7534.75
7534.44
7534.13
7533.82
7533.53
7533.24
7532.96
7532.69
7532.43
7532.17
7531.92
7531.67
7531.44
7531.21
7530.98
7530.77
7530.56
7530.35
7530.15
7529.95
7529.77
7529.58
7529.4
7529.24
7529.07
7528.91
7528.76
7528.61
7528.47
7528.34
7528.2
7528.08
7527.96
7527.85
7527.74
7527.62
7527.52
7527.42
7527.32
7527.23
7527.14
7527.06
7526.99
7526.91
7526.85
7526.78
7526.72
7526.66
7526.61
7526.56
7526.52
7526.48
7526.44
7526.4
7526.37
7526.36
7526.34
7526.32
7526.3
7526.29
7526.27
7526.26
7526.25
7526.24
7526.23
7526.22
7526.22
7526.21
7526.21
7526.2
7526.2
7526.2
7526.21
7526.21
7526.22
7526.22
7526.23
7526.24
7526.25
7526.27
7526.28
7526.3
7526.31
7526.33
7526.35
7526.37
7526.4
7526.42
7526.45
7526.48
7526.5
7526.54
7526.57
7526.6
7526.63
7526.67
7526.71
7526.75
7526.79
7526.83
7526.87
7526.91
7526.96
7527
7527.05
7527.1
7527.15
7527.2
7527.25
7527.31
7527.36
7527.42
7527.47
7527.53
7527.59
7527.65
7527.71
7527.78
7527.84
7527.9
7527.97
7528.04
7528.11
7528.17
7528.24
7528.32
7528.39
7528.46
7528.54
7528.61
7528.69
7528.77
7528.84
7528.92
7529
7529.09
7529.17
7529.24
7529.37
7334.02
7314.61
7303.71
7292.22
7281.68
7271.36
7261.22
7251.15
7241.11
7231.1
7221.1
7211.13
7201.17
7191.23
7181.31
7171.43
7161.57
7151.74
7141.93
7132.17
7122.44
7112.77
7103.15
7093.58
7084.06
7074.6
7065.2
7055.87
7046.63
7037.46
7028.36
7019.35
7010.44
7001.62
6992.9
6984.3
6975.8
6967.43
6959.16
6950.99
6942.96
6935.06
6927.32
6919.71
6912.21
6904.87
6897.68
6890.64
6883.75
6877.05
6870.5
6864.1
6857.85
6851.8
6845.91
6840.18
6834.66
6829.32
6824.1
6819.12
6814.28
6809.65
6805.25
6801.03
6796.98
6793.12
6789.46
6785.98
6782.67
6779.53
6776.52
6773.65
6770.96
6768.39
6765.75
6762.9
6759.89
6757.01
6754.22
6751.72
6749.96
6749.29
6749.39
6743.49
6730.12
6726.54
6735.32
6735.37
6732.79
6732.3
6729.68
6727.43
6727.12
6726.82
6725.9
6725.11
6723.95
6723.08
6722.23
6722.03
6722.34
6722.15
6720.56
6720.85
6718.3
6720.43
6727.7
6730.76
6733.54
6736.2
6739.01
6742
6745.87
6750.41
6754.66
6759.2
6763.92
6769.19
6775.23
6781.45
6787.55
6794.37
6798.92
6807.07
6818.8
6828.28
6838.34
6848.42
6858.77
6869.88
6881.67
6893.58
6905.86
6918.36
6931.14
6944.21
6957.64
6971.4
6985.42
6999.72
7014.26
7029.04
7044.04
7059.23
7074.6
7090.12
7105.77
7121.53
7137.37
7153.28
7169.24
7185.21
7201.18
7217.1
7232.98
7248.8
7264.52
7280.14
7295.62
7310.94
7326.1
7341.07
7355.83
7370.38
7384.7
7398.77
7412.59
7426.12
7439.37
7452.32
7464.97
7477.29
7489.3
7500.97
7512.31
7523.3
7533.95
7544.26
7554.21
7563.82
7573.08
7582.01
7590.6
7598.85
7606.78
7614.41
7621.73
7628.76
7635.51
7642
7648.23
7654.22
7659.98
7665.54
7670.91
7676.1
7681.13
7686
7690.72
7695.26
7699.64
7703.82
7707.79
7711.54
7715.05
7718.32
7721.34
7724.08
7726.56
7728.76
7730.67
7732.3
7733.64
7734.69
7735.45
7735.92
7736.1
7735.99
7735.6
7734.93
7733.99
7732.78
7731.31
7729.58
7727.6
7725.39
7722.95
7720.29
7717.42
7714.35
7711.09
7707.66
7704.06
7700.3
7696.4
7692.36
7688.21
7683.94
7679.57
7675.11
7670.57
7665.97
7661.31
7656.6
7651.85
7647.07
7642.28
7637.46
7632.65
7627.83
7623.03
7618.23
7613.46
7608.72
7604.01
7599.34
7594.71
7590.12
7585.57
7581.09
7576.65
7572.28
7567.96
7563.7
7559.5
7555.36
7551.29
7547.28
7543.34
7539.46
7535.65
7531.9
7528.22
7524.6
7521.05
7517.56
7514.13
7510.77
7507.47
7504.23
7501.06
7497.94
7494.88
7491.88
7488.93
7486.04
7483.2
7480.42
7477.69
7475.02
7472.39
7469.81
7467.28
7464.8
7462.36
7459.97
7457.63
7455.32
7453.07
7450.85
7448.67
7446.53
7444.43
7442.37
7440.35
7438.36
7436.41
7434.49
7432.61
7430.76
7428.94
7427.15
7425.39
7423.67
7421.97
7420.3
7418.66
7417.05
7415.46
7413.9
7412.36
7410.85
7409.37
7407.9
7406.47
7405.05
7403.65
7402.28
7400.93
7399.6
7398.28
7396.99
7395.72
7394.47
7393.23
7392.02
7390.82
7389.64
7388.47
7387.33
7386.2
7385.08
7383.99
7382.9
7381.84
7380.79
7379.75
7378.73
7377.73
7376.74
7375.76
7374.8
7373.85
7372.92
7372
7371.09
7370.2
7369.32
7368.46
7367.6
7366.76
7365.94
7365.12
7364.32
7363.53
7362.76
7361.99
7361.24
7360.5
7359.78
7359.06
7358.36
7357.66
7356.98
7356.31
7355.65
7355.01
7354.37
7353.75
7353.13
7352.53
7351.93
7351.35
7350.78
7350.22
7349.67
7349.12
7348.59
7348.07
7347.56
7347.05
7346.56
7346.07
7345.6
7345.13
7344.68
7344.23
7343.79
7343.36
7342.94
7342.52
7342.12
7341.72
7341.33
7340.95
7340.58
7340.22
7339.86
7339.51
7339.17
7338.84
7338.52
7338.2
7337.89
7337.59
7337.29
7337.01
7336.73
7336.46
7336.19
7335.93
7335.68
7335.44
7335.21
7334.98
7334.75
7334.53
7334.32
7334.12
7333.92
7333.72
7333.53
7333.35
7333.18
7333.01
7332.85
7332.68
7332.53
7332.38
7332.25
7332.11
7331.99
7331.86
7331.73
7331.61
7331.5
7331.39
7331.29
7331.19
7331.09
7331.01
7330.92
7330.84
7330.76
7330.69
7330.62
7330.56
7330.5
7330.45
7330.39
7330.35
7330.29
7330.25
7330.23
7330.21
7330.18
7330.16
7330.13
7330.12
7330.1
7330.08
7330.07
7330.05
7330.04
7330.03
7330.02
7330.01
7330.01
7330
7330
7330
7329.99
7330
7330
7330
7330.01
7330.01
7330.02
7330.03
7330.04
7330.06
7330.07
7330.09
7330.11
7330.12
7330.14
7330.17
7330.19
7330.21
7330.24
7330.27
7330.3
7330.33
7330.36
7330.39
7330.43
7330.46
7330.5
7330.54
7330.58
7330.62
7330.66
7330.71
7330.75
7330.8
7330.84
7330.89
7330.94
7330.99
7331.05
7331.1
7331.16
7331.21
7331.27
7331.33
7331.39
7331.45
7331.51
7331.57
7331.63
7331.7
7331.76
7331.83
7331.9
7331.97
7332.04
7332.11
7332.18
7332.26
7332.33
7332.41
7332.48
7332.56
7332.64
7332.72
7332.8
7332.88
7332.97
7333.03
7333.17
7088.33
7081.31
7087.03
7083.33
7077.19
7069.53
7061.04
7052.04
7042.71
7033.17
7023.51
7013.77
7003.97
6994.15
6984.31
6974.48
6964.66
6954.85
6945.06
6935.31
6925.58
6915.9
6906.27
6896.68
6887.14
6877.66
6868.26
6858.92
6849.64
6840.44
6831.32
6822.29
6813.35
6804.51
6795.77
6787.14
6778.62
6770.22
6761.93
6753.75
6745.69
6737.77
6730.02
6722.39
6714.89
6707.53
6700.31
6693.24
6686.35
6679.63
6673.08
6666.67
6660.41
6654.33
6648.45
6642.73
6637.18
6631.8
6626.59
6621.59
6616.75
6612.11
6607.69
6603.41
6599.29
6595.38
6591.68
6588.15
6584.77
6581.53
6578.43
6575.49
6572.68
6569.91
6567.12
6564.37
6561.66
6558.86
6555.97
6553.11
6550.67
6548.6
6546.68
6544.9
6543.8
6544
6544.48
6539.35
6526.99
6526.56
6534.55
6531.78
6531.74
6529.5
6527.54
6527.6
6527.71
6527.02
6526.41
6525.93
6525.57
6525.56
6526.73
6528.53
6529.74
6530.73
6531.35
6532.16
6530.8
6534.03
6542.26
6545.97
6549.68
6553.43
6557.29
6562.05
6567.57
6572.97
6578.74
6584.75
6591.49
6599.03
6606.71
6614.07
6622.19
6627.78
6637.28
6650.6
6661.41
6672.74
6684.05
6695.52
6707.77
6720.64
6733.58
6746.79
6760.21
6773.92
6787.89
6802.22
6816.84
6831.69
6846.76
6862.02
6877.45
6893.04
6908.77
6924.6
6940.53
6956.52
6972.55
6988.6
7004.63
7020.63
7036.58
7052.47
7068.26
7083.93
7099.46
7114.84
7130.06
7145.08
7159.89
7174.48
7188.84
7202.96
7216.81
7230.37
7243.65
7256.64
7269.31
7281.67
7293.69
7305.39
7316.76
7327.77
7338.44
7348.76
7358.74
7368.37
7377.65
7386.59
7395.2
7403.48
7411.44
7419.08
7426.43
7433.48
7440.26
7446.77
7453.03
7459.06
7464.87
7470.46
7475.86
7481.08
7486.13
7491.03
7495.76
7500.32
7504.7
7508.89
7512.88
7516.65
7520.18
7523.46
7526.48
7529.24
7531.73
7533.94
7535.86
7537.5
7538.83
7539.88
7540.64
7541.09
7541.26
7541.14
7540.73
7540.04
7539.07
7537.83
7536.33
7534.57
7532.56
7530.31
7527.84
7525.14
7522.22
7519.11
7515.8
7512.33
7508.68
7504.87
7500.93
7496.85
7492.64
7488.33
7483.91
7479.41
7474.83
7470.19
7465.49
7460.74
7455.95
7451.13
7446.3
7441.46
7436.61
7431.76
7426.93
7422.11
7417.31
7412.55
7407.82
7403.12
7398.47
7393.86
7389.31
7384.81
7380.36
7375.97
7371.64
7367.37
7363.16
7359.02
7354.94
7350.93
7346.98
7343.1
7339.29
7335.54
7331.86
7328.24
7324.69
7321.2
7317.77
7314.41
7311.12
7307.88
7304.7
7301.59
7298.53
7295.53
7292.59
7289.7
7286.87
7284.09
7281.36
7278.69
7276.06
7273.49
7270.96
7268.48
7266.05
7263.66
7261.32
7259.02
7256.77
7254.55
7252.38
7250.24
7248.14
7246.09
7244.06
7242.08
7240.13
7238.21
7236.33
7234.48
7232.66
7230.88
7229.12
7227.4
7225.7
7224.03
7222.4
7220.78
7219.2
7217.64
7216.1
7214.59
7213.11
7211.64
7210.21
7208.79
7207.39
7206.02
7204.67
7203.34
7202.03
7200.73
7199.46
7198.21
7196.97
7195.76
7194.56
7193.37
7192.21
7191.06
7189.93
7188.82
7187.72
7186.64
7185.57
7184.52
7183.49
7182.47
7181.46
7180.47
7179.49
7178.53
7177.58
7176.65
7175.73
7174.82
7173.93
7173.05
7172.19
7171.33
7170.49
7169.67
7168.85
7168.05
7167.26
7166.49
7165.72
7164.97
7164.23
7163.5
7162.79
7162.08
7161.39
7160.71
7160.04
7159.38
7158.74
7158.1
7157.47
7156.86
7156.26
7155.66
7155.08
7154.51
7153.95
7153.4
7152.85
7152.32
7151.8
7151.29
7150.79
7150.29
7149.81
7149.33
7148.87
7148.41
7147.96
7147.53
7147.1
7146.68
7146.26
7145.86
7145.46
7145.07
7144.69
7144.32
7143.96
7143.6
7143.26
7142.91
7142.58
7142.26
7141.94
7141.63
7141.33
7141.04
7140.75
7140.47
7140.2
7139.94
7139.69
7139.44
7139.19
7138.95
7138.72
7138.5
7138.28
7138.07
7137.87
7137.67
7137.48
7137.29
7137.11
7136.93
7136.76
7136.6
7136.44
7136.29
7136.16
7136.01
7135.87
7135.74
7135.61
7135.49
7135.37
7135.26
7135.15
7135.05
7134.95
7134.86
7134.77
7134.68
7134.6
7134.53
7134.46
7134.4
7134.33
7134.27
7134.21
7134.15
7134.13
7134.09
7134.06
7134.03
7134
7133.98
7133.96
7133.93
7133.91
7133.89
7133.88
7133.86
7133.85
7133.83
7133.82
7133.81
7133.8
7133.8
7133.79
7133.79
7133.79
7133.78
7133.79
7133.79
7133.79
7133.8
7133.8
7133.81
7133.82
7133.83
7133.85
7133.86
7133.88
7133.89
7133.91
7133.93
7133.96
7133.98
7134
7134.03
7134.06
7134.09
7134.12
7134.15
7134.18
7134.22
7134.25
7134.29
7134.33
7134.37
7134.41
7134.45
7134.5
7134.54
7134.59
7134.64
7134.68
7134.73
7134.79
7134.84
7134.89
7134.95
7135
7135.06
7135.12
7135.18
7135.24
7135.3
7135.36
7135.43
7135.49
7135.56
7135.62
7135.69
7135.76
7135.83
7135.9
7135.98
7136.05
7136.12
7136.2
7136.28
7136.35
7136.43
7136.51
7136.59
7136.67
7136.76
7136.83
7136.96
6861.8
6868.88
6877.84
6878.41
6875.01
6869.07
6861.67
6853.38
6844.54
6835.35
6825.92
6816.34
6806.67
6796.92
6787.14
6777.35
6767.55
6757.76
6747.98
6738.21
6728.48
6718.78
6709.12
6699.51
6689.94
6680.45
6671.02
6661.66
6652.34
6643.11
6633.95
6624.89
6615.93
6607.06
6598.28
6589.62
6581.07
6572.64
6564.32
6556.12
6548.02
6540.08
6532.31
6524.66
6517.13
6509.74
6502.49
6495.4
6488.49
6481.75
6475.18
6468.78
6462.51
6456.41
6450.5
6444.77
6439.21
6433.8
6428.6
6423.58
6418.73
6414.06
6409.55
6405.24
6401.11
6397.17
6393.42
6389.83
6386.39
6383.08
6379.92
6376.92
6374.02
6371.18
6368.38
6365.68
6363.05
6360.44
6357.96
6355.54
6353.09
6350.53
6348
6346.01
6344.64
6343.61
6342.5
6341.67
6342.28
6343.22
6338.04
6325.25
6325.6
6335.87
6333.08
6332.68
6330.7
6328.99
6329.74
6330.82
6330.72
6331.09
6331.53
6332.19
6333.17
6335.3
6337.99
6340.03
6342.74
6343.02
6344.84
6343.69
6347.44
6357.11
6361.54
6366.12
6370.79
6375.81
6381.82
6388.7
6395.41
6402.49
6409.83
6417.91
6426.84
6435.82
6444.42
6453.78
6460.38
6471.14
6485.96
6497.96
6510.54
6522.88
6535.46
6548.13
6561.6
6575.71
6589.86
6604.32
6618.97
6633.85
6649.02
6664.42
6679.96
6695.66
6711.48
6727.42
6743.45
6759.55
6775.69
6791.83
6807.96
6824.06
6840.11
6856.09
6871.97
6887.71
6903.32
6918.77
6934.06
6949.16
6964.03
6978.69
6993.1
7007.27
7021.17
7034.79
7048.11
7061.15
7073.87
7086.26
7098.33
7110.06
7121.46
7132.51
7143.2
7153.56
7163.57
7173.23
7182.54
7191.51
7200.16
7208.47
7216.47
7224.16
7231.54
7238.64
7245.46
7252.01
7258.32
7264.4
7270.25
7275.89
7281.33
7286.59
7291.67
7296.59
7301.33
7305.91
7310.3
7314.51
7318.5
7322.28
7325.82
7329.11
7332.15
7334.92
7337.42
7339.64
7341.56
7343.19
7344.52
7345.57
7346.31
7346.76
7346.9
7346.76
7346.32
7345.6
7344.6
7343.33
7341.78
7339.97
7337.91
7335.62
7333.09
7330.33
7327.37
7324.19
7320.83
7317.29
7313.58
7309.71
7305.7
7301.56
7297.29
7292.92
7288.44
7283.88
7279.25
7274.54
7269.78
7264.98
7260.14
7255.28
7250.4
7245.51
7240.62
7235.73
7230.85
7226
7221.17
7216.37
7211.61
7206.89
7202.22
7197.59
7193.01
7188.49
7184.03
7179.62
7175.28
7170.99
7166.78
7162.63
7158.54
7154.52
7150.57
7146.69
7142.87
7139.12
7135.44
7131.82
7128.27
7124.78
7121.36
7118
7114.7
7111.47
7108.3
7105.19
7102.13
7099.13
7096.19
7093.31
7090.48
7087.71
7084.99
7082.32
7079.7
7077.13
7074.6
7072.13
7069.7
7067.32
7064.98
7062.68
7060.43
7058.22
7056.05
7053.92
7051.82
7049.77
7047.75
7045.77
7043.82
7041.91
7040.03
7038.18
7036.37
7034.58
7032.83
7031.11
7029.41
7027.75
7026.11
7024.5
7022.91
7021.35
7019.82
7018.31
7016.83
7015.36
7013.92
7012.51
7011.11
7009.74
7008.39
7007.06
7005.75
7004.45
7003.18
7001.93
7000.69
6999.47
6998.27
6997.09
6995.93
6994.78
6993.65
6992.53
6991.44
6990.35
6989.29
6988.23
6987.2
6986.18
6985.17
6984.18
6983.2
6982.24
6981.29
6980.36
6979.44
6978.53
6977.64
6976.76
6975.89
6975.04
6974.2
6973.37
6972.56
6971.75
6970.97
6970.19
6969.43
6968.67
6967.93
6967.21
6966.49
6965.79
6965.09
6964.41
6963.74
6963.09
6962.44
6961.8
6961.18
6960.57
6959.96
6959.37
6958.79
6958.22
6957.66
6957.1
6956.56
6956.03
6955.51
6955
6954.5
6954
6953.52
6953.05
6952.58
6952.13
6951.68
6951.24
6950.81
6950.39
6949.98
6949.57
6949.18
6948.79
6948.41
6948.04
6947.68
6947.32
6946.97
6946.64
6946.31
6945.98
6945.67
6945.36
6945.06
6944.77
6944.48
6944.21
6943.94
6943.67
6943.42
6943.16
6942.92
6942.69
6942.46
6942.23
6942.02
6941.81
6941.61
6941.41
6941.22
6941.03
6940.85
6940.67
6940.51
6940.35
6940.19
6940.04
6939.88
6939.75
6939.61
6939.48
6939.35
6939.23
6939.12
6939.01
6938.9
6938.8
6938.7
6938.6
6938.52
6938.44
6938.37
6938.28
6938.21
6938.14
6938.07
6938.04
6938
6937.96
6937.92
6937.89
6937.86
6937.83
6937.8
6937.77
6937.75
6937.72
6937.7
6937.68
6937.66
6937.65
6937.63
6937.62
6937.61
6937.6
6937.59
6937.58
6937.58
6937.57
6937.57
6937.57
6937.57
6937.57
6937.58
6937.58
6937.59
6937.6
6937.61
6937.62
6937.63
6937.65
6937.66
6937.68
6937.7
6937.72
6937.74
6937.77
6937.79
6937.82
6937.84
6937.87
6937.9
6937.94
6937.97
6938
6938.04
6938.08
6938.12
6938.16
6938.2
6938.24
6938.28
6938.33
6938.38
6938.42
6938.47
6938.52
6938.57
6938.63
6938.68
6938.73
6938.79
6938.85
6938.91
6938.97
6939.03
6939.09
6939.15
6939.21
6939.28
6939.35
6939.41
6939.48
6939.55
6939.62
6939.69
6939.76
6939.84
6939.91
6939.99
6940.06
6940.14
6940.22
6940.3
6940.38
6940.46
6940.55
6940.62
6940.75
6695.3
6686.64
6686.79
6683.42
6678.31
6671.75
6664.14
6655.83
6647.02
6637.89
6628.53
6619.01
6609.37
6599.65
6589.89
6580.1
6570.3
6560.5
6550.71
6540.93
6531.17
6521.45
6511.76
6502.11
6492.51
6482.98
6473.51
6464.11
6454.77
6445.5
6436.3
6427.19
6418.18
6409.28
6400.48
6391.78
6383.19
6374.72
6366.36
6358.1
6349.99
6342.02
6334.21
6326.53
6318.96
6311.54
6304.28
6297.17
6290.23
6283.46
6276.86
6270.44
6264.17
6258.05
6252.11
6246.35
6240.77
6235.34
6230.11
6225.08
6220.22
6215.52
6210.99
6206.64
6202.5
6198.53
6194.71
6191.07
6187.59
6184.24
6181.04
6177.97
6175.01
6172.13
6169.35
6166.66
6164.04
6161.54
6159.22
6157.01
6154.82
6152.63
6150.57
6148.72
6146.98
6145.19
6143.5
6142.18
6141.16
6140.38
6140.08
6141.35
6143.02
6137.81
6124.2
6125.73
6138.24
6135.49
6135.32
6133.76
6132.61
6134.46
6136.56
6137.57
6138.79
6140.26
6141.66
6143.75
6145.84
6148.93
6152.43
6155.64
6156.83
6159.43
6158.6
6163.3
6174.5
6180.06
6185.89
6191.74
6198.01
6205.34
6213.59
6221.62
6230.01
6238.65
6248.03
6258.29
6268.49
6278.23
6288.69
6296.18
6308.18
6324.06
6337.43
6350.73
6363.98
6377.56
6391.16
6405.61
6420.67
6435.74
6451.02
6466.49
6482.09
6497.92
6513.91
6529.97
6546.14
6562.38
6578.63
6594.9
6611.17
6627.39
6643.57
6659.66
6675.64
6691.49
6707.2
6722.74
6738.12
6753.3
6768.27
6783
6797.5
6811.73
6825.69
6839.38
6852.77
6865.87
6878.65
6891.1
6903.21
6914.99
6926.44
6937.54
6948.29
6958.69
6968.74
6978.45
6987.82
6996.84
7005.54
7013.91
7021.96
7029.7
7037.14
7044.3
7051.18
7057.79
7064.16
7070.29
7076.2
7081.9
7087.39
7092.69
7097.8
7102.74
7107.51
7112.1
7116.51
7120.71
7124.71
7128.49
7132.04
7135.34
7138.39
7141.16
7143.66
7145.88
7147.8
7149.42
7150.75
7151.78
7152.51
7152.93
7153.05
7152.87
7152.4
7151.63
7150.59
7149.26
7147.66
7145.8
7143.68
7141.32
7138.72
7135.9
7132.86
7129.61
7126.17
7122.55
7118.76
7114.82
7110.73
7106.5
7102.16
7097.7
7093.15
7088.52
7083.81
7079.03
7074.2
7069.33
7064.43
7059.5
7054.56
7049.61
7044.67
7039.73
7034.8
7029.91
7025.04
7020.2
7015.4
7010.65
7005.94
7001.28
6996.68
6992.14
6987.65
6983.23
6978.87
6974.57
6970.34
6966.18
6962.09
6958.07
6954.11
6950.22
6946.4
6942.65
6938.96
6935.34
6931.79
6928.31
6924.89
6921.53
6918.24
6915.01
6911.84
6908.73
6905.68
6902.69
6899.75
6896.88
6894.05
6891.28
6888.57
6885.9
6883.29
6880.72
6878.21
6875.74
6873.31
6870.94
6868.6
6866.31
6864.06
6861.86
6859.69
6857.56
6855.47
6853.42
6851.41
6849.43
6847.49
6845.58
6843.7
6841.86
6840.04
6838.26
6836.51
6834.79
6833.1
6831.44
6829.8
6828.19
6826.61
6825.05
6823.52
6822.01
6820.52
6819.06
6817.62
6816.21
6814.81
6813.44
6812.09
6810.76
6809.45
6808.15
6806.88
6805.63
6804.39
6803.17
6801.97
6800.79
6799.62
6798.48
6797.34
6796.23
6795.13
6794.05
6792.98
6791.93
6790.89
6789.87
6788.86
6787.87
6786.89
6785.93
6784.98
6784.04
6783.12
6782.21
6781.32
6780.44
6779.57
6778.72
6777.88
6777.05
6776.23
6775.43
6774.64
6773.87
6773.1
6772.35
6771.61
6770.88
6770.17
6769.46
6768.77
6768.09
6767.42
6766.77
6766.12
6765.48
6764.86
6764.25
6763.64
6763.05
6762.47
6761.9
6761.34
6760.79
6760.25
6759.72
6759.2
6758.69
6758.18
6757.69
6757.21
6756.74
6756.27
6755.82
6755.37
6754.93
6754.51
6754.09
6753.67
6753.27
6752.88
6752.49
6752.11
6751.74
6751.38
6751.03
6750.68
6750.34
6750.01
6749.69
6749.37
6749.06
6748.77
6748.48
6748.19
6747.92
6747.65
6747.38
6747.13
6746.88
6746.64
6746.4
6746.17
6745.95
6745.74
6745.53
6745.32
6745.13
6744.94
6744.76
6744.58
6744.4
6744.24
6744.07
6743.92
6743.76
6743.62
6743.48
6743.34
6743.21
6743.09
6742.97
6742.85
6742.74
6742.63
6742.54
6742.44
6742.35
6742.25
6742.17
6742.07
6742.04
6741.99
6741.94
6741.89
6741.84
6741.8
6741.76
6741.72
6741.68
6741.65
6741.62
6741.59
6741.56
6741.53
6741.51
6741.49
6741.47
6741.45
6741.43
6741.42
6741.4
6741.39
6741.38
6741.37
6741.36
6741.36
6741.35
6741.35
6741.35
6741.35
6741.35
6741.36
6741.36
6741.37
6741.38
6741.39
6741.4
6741.41
6741.43
6741.44
6741.46
6741.48
6741.5
6741.52
6741.55
6741.57
6741.6
6741.63
6741.66
6741.69
6741.72
6741.75
6741.79
6741.82
6741.86
6741.9
6741.94
6741.98
6742.02
6742.07
6742.11
6742.16
6742.21
6742.26
6742.31
6742.36
6742.41
6742.47
6742.52
6742.58
6742.63
6742.69
6742.75
6742.81
6742.87
6742.94
6743
6743.07
6743.13
6743.2
6743.27
6743.34
6743.41
6743.48
6743.55
6743.63
6743.7
6743.78
6743.85
6743.93
6744.01
6744.09
6744.17
6744.25
6744.34
6744.4
6744.54
6532.33
6512.27
6502.72
6493.6
6485.23
6476.8
6468.17
6459.29
6450.17
6440.85
6431.4
6421.81
6412.13
6402.38
6392.58
6382.76
6372.93
6363.11
6353.29
6343.48
6333.69
6323.93
6314.19
6304.5
6294.85
6285.27
6275.75
6266.31
6256.94
6247.63
6238.37
6229.21
6220.15
6211.21
6202.37
6193.64
6185
6176.46
6168.03
6159.76
6151.62
6143.61
6135.75
6128.02
6120.42
6112.99
6105.71
6098.56
6091.59
6084.77
6078.13
6071.67
6065.38
6059.24
6053.27
6047.49
6041.88
6036.43
6031.17
6026.12
6021.24
6016.53
6011.97
6007.59
6003.42
5999.42
5995.57
5991.89
5988.38
5985.01
5981.78
5978.68
5975.7
5972.83
5970.08
5967.42
5964.84
5962.39
5960.09
5957.9
5955.8
5953.84
5952.11
5950.48
5948.85
5947.34
5945.98
5944.62
5943.17
5941.78
5940.92
5940.43
5940.09
5940.05
5941.97
5944.26
5938.99
5924.51
5927.85
5942.61
5940.47
5940.53
5939.68
5939.18
5942.36
5945.42
5947.57
5949.48
5951.8
5953.99
5956.54
5959.2
5962.98
5967.29
5971.37
5973.35
5976.82
5976.52
5982.36
5995.48
6002.36
6009.47
6016.64
6024.16
6032.91
6042.54
6051.87
6061.54
6071.4
6081.92
6093.29
6104.48
6116.1
6127.3
6138.89
6147.65
6160.78
6178.33
6192.68
6207.41
6222.09
6236.74
6252.16
6268.13
6283.98
6299.97
6316.07
6332.23
6348.56
6364.99
6381.41
6397.84
6414.26
6430.64
6446.96
6463.2
6479.31
6495.29
6511.12
6526.78
6542.25
6557.54
6572.61
6587.44
6602.03
6616.35
6630.4
6644.17
6657.65
6670.82
6683.67
6696.2
6708.39
6720.24
6731.75
6742.92
6753.74
6764.2
6774.33
6784.11
6793.54
6802.64
6811.4
6819.84
6827.97
6835.78
6843.3
6850.54
6857.5
6864.19
6870.63
6876.83
6882.8
6888.56
6894.1
6899.45
6904.61
6909.57
6914.36
6918.96
6923.37
6927.58
6931.58
6935.36
6938.9
6942.21
6945.25
6948.02
6950.51
6952.71
6954.62
6956.23
6957.55
6958.55
6959.25
6959.64
6959.72
6959.5
6958.98
6958.17
6957.06
6955.67
6954
6952.07
6949.88
6947.43
6944.75
6941.83
6938.7
6935.37
6931.83
6928.12
6924.23
6920.19
6916
6911.68
6907.24
6902.69
6898.04
6893.31
6888.51
6883.65
6878.74
6873.78
6868.8
6863.8
6858.78
6853.76
6848.75
6843.75
6838.77
6833.82
6828.9
6824.02
6819.17
6814.38
6809.64
6804.95
6800.31
6795.74
6791.23
6786.79
6782.41
6778.09
6773.85
6769.68
6765.58
6761.54
6757.58
6753.69
6749.86
6746.11
6742.42
6738.8
6735.25
6731.77
6728.36
6725
6721.71
6718.49
6715.32
6712.22
6709.18
6706.19
6703.26
6700.39
6697.57
6694.81
6692.1
6689.44
6686.84
6684.28
6681.77
6679.3
6676.89
6674.52
6672.19
6669.9
6667.66
6665.46
6663.3
6661.18
6659.09
6657.05
6655.04
6653.06
6651.12
6649.22
6647.34
6645.5
6643.7
6641.92
6640.17
6638.45
6636.76
6635.1
6633.47
6631.86
6630.28
6628.72
6627.19
6625.68
6624.2
6622.74
6621.3
6619.89
6618.49
6617.12
6615.77
6614.44
6613.13
6611.83
6610.56
6609.3
6608.07
6606.85
6605.65
6604.47
6603.3
6602.15
6601.02
6599.9
6598.8
6597.72
6596.65
6595.59
6594.55
6593.53
6592.52
6591.53
6590.55
6589.59
6588.64
6587.7
6586.78
6585.87
6584.98
6584.09
6583.23
6582.37
6581.53
6580.7
6579.89
6579.09
6578.3
6577.52
6576.76
6576
6575.26
6574.54
6573.82
6573.12
6572.43
6571.75
6571.08
6570.42
6569.77
6569.14
6568.52
6567.9
6567.3
6566.71
6566.13
6565.56
6565
6564.45
6563.91
6563.38
6562.86
6562.35
6561.85
6561.36
6560.88
6560.4
6559.94
6559.49
6559.04
6558.6
6558.18
6557.76
6557.35