/*--------------------------------*- C++ -*----------------------------------*\
| =========                 |                                                 |
| \\      /  F ield         | OpenFOAM: The Open Source CFD Toolbox           |
|  \\    /   O peration     | Version:  v2006                                 |
|   \\  /    A nd           | Website:  www.openfoam.com                      |
|    \\/     M anipulation  |                                                 |
\*---------------------------------------------------------------------------*/
FoamFile
{
    version     2.0;
    format      ascii;
    class       volScalarField;
    location    "4";
    object      p_rgh;
}
// * * * * * * * * * * * * * * * * * * * * * * * * * * * * * * * * * * * * * //

dimensions      [1 -1 -2 0 0 0 0];


internalField   nonuniform List<scalar> 
33000
(
7852.51
7820.2
7810.05
7795.06
7781.43
7768.75
7756.83
7745.44
7734.46
7723.78
7713.32
7703.02
7692.82
7682.71
7672.66
7662.66
7652.74
7642.89
7633.09
7623.32
7613.59
7603.9
7594.26
7584.67
7575.12
7565.67
7556.32
7547.06
7537.83
7528.66
7519.55
7510.55
7501.69
7492.94
7484.26
7475.66
7467.14
7458.71
7450.49
7442.45
7434.47
7426.59
7418.82
7411.17
7403.73
7396.46
7389.31
7382.3
7375.43
7368.7
7362.13
7355.74
7349.54
7343.49
7337.59
7331.87
7326.32
7320.95
7315.85
7310.89
7306.1
7301.5
7297.12
7292.97
7289.05
7285.3
7281.74
7278.38
7275.25
7272.4
7269.78
7267.28
7264.76
7262.2
7259.93
7258.4
7257.5
7253.47
7244.12
7238.23
7239.7
7235.21
7234.52
7231.24
7228.48
7226.99
7225.91
7224.82
7223.21
7222.24
7221.02
7220.09
7219.23
7218.66
7217.76
7217.25
7215.58
7214.04
7210.47
7208.71
7210.84
7210.46
7211.42
7212.41
7213.84
7215.91
7218.6
7221.28
7224.06
7227.12
7230.42
7233.95
7237.67
7241.78
7245.47
7249.71
7252.09
7256.84
7264.71
7270.81
7277.92
7285.38
7293.1
7301.59
7310.78
7320.23
7330.15
7340.44
7351.1
7362.23
7373.73
7385.56
7397.74
7410.23
7423.05
7436.16
7449.57
7463.27
7477.24
7491.47
7505.95
7520.65
7535.6
7550.72
7566.01
7581.45
7597.02
7612.72
7628.49
7644.32
7660.19
7676.07
7691.98
7707.86
7723.67
7739.42
7755.06
7770.61
7786.05
7801.33
7816.43
7831.34
7846.08
7860.59
7874.87
7888.89
7902.66
7916.18
7929.4
7942.31
7954.92
7967.23
7979.22
7990.87
8002.18
8013.15
8023.78
8034.07
8044.02
8053.61
8062.85
8071.75
8080.33
8088.58
8096.49
8104.09
8111.39
8118.41
8125.14
8131.6
8137.8
8143.77
8149.52
8155.05
8160.39
8165.55
8170.53
8175.38
8180.07
8184.61
8188.96
8193.12
8197.07
8200.79
8204.27
8207.51
8210.51
8213.25
8215.71
8217.89
8219.79
8221.42
8222.76
8223.81
8224.56
8225.05
8225.24
8225.15
8224.78
8224.13
8223.2
8222.02
8220.58
8218.89
8216.95
8214.77
8212.36
8209.74
8206.92
8203.89
8200.68
8197.28
8193.72
8190.01
8186.16
8182.17
8178.06
8173.83
8169.51
8165.09
8160.6
8156.04
8151.42
8146.75
8142.04
8137.3
8132.54
8127.76
8122.97
8118.19
8113.41
8108.65
8103.91
8099.19
8094.5
8089.84
8085.23
8080.66
8076.14
8071.66
8067.24
8062.87
8058.57
8054.32
8050.12
8045.99
8041.92
8037.92
8033.99
8030.11
8026.3
8022.56
8018.87
8015.26
8011.71
8008.22
8004.79
8001.43
7998.13
7994.89
7991.71
7988.58
7985.52
7982.52
7979.57
7976.68
7973.84
7971.05
7968.32
7965.64
7963.01
7960.43
7957.9
7955.41
7952.97
7950.58
7948.23
7945.93
7943.66
7941.44
7939.26
7937.12
7935.02
7932.96
7930.93
7928.94
7926.99
7925.07
7923.18
7921.33
7919.51
7917.72
7915.96
7914.23
7912.54
7910.87
7909.23
7907.61
7906.02
7904.46
7902.93
7901.41
7899.93
7898.46
7897.02
7895.61
7894.21
7892.84
7891.49
7890.15
7888.84
7887.55
7886.28
7885.03
7883.79
7882.58
7881.38
7880.2
7879.03
7877.89
7876.76
7875.65
7874.55
7873.47
7872.4
7871.35
7870.32
7869.3
7868.29
7867.3
7866.33
7865.37
7864.42
7863.49
7862.57
7861.66
7860.77
7859.89
7859.03
7858.17
7857.34
7856.51
7855.7
7854.89
7854.11
7853.33
7852.57
7851.81
7851.08
7850.35
7849.63
7848.93
7848.24
7847.55
7846.88
7846.23
7845.58
7844.94
7844.32
7843.7
7843.1
7842.5
7841.92
7841.35
7840.79
7840.23
7839.69
7839.16
7838.64
7838.12
7837.62
7837.13
7836.64
7836.16
7835.7
7835.24
7834.79
7834.35
7833.92
7833.5
7833.09
7832.68
7832.28
7831.89
7831.51
7831.14
7830.78
7830.42
7830.07
7829.73
7829.4
7829.07
7828.75
7828.44
7828.14
7827.85
7827.56
7827.28
7827.01
7826.74
7826.49
7826.23
7825.99
7825.75
7825.52
7825.3
7825.08
7824.87
7824.66
7824.47
7824.28
7824.08
7823.9
7823.72
7823.55
7823.39
7823.23
7823.07
7822.93
7822.78
7822.65
7822.52
7822.39
7822.27
7822.15
7822.04
7821.93
7821.84
7821.74
7821.64
7821.55
7821.46
7821.38
7821.29
7821.23
7821.15
7821.09
7821.03
7820.97
7820.92
7820.87
7820.83
7820.79
7820.75
7820.72
7820.68
7820.66
7820.63
7820.61
7820.6
7820.59
7820.58
7820.56
7820.55
7820.54
7820.53
7820.52
7820.52
7820.51
7820.51
7820.51
7820.51
7820.51
7820.51
7820.51
7820.52
7820.53
7820.53
7820.54
7820.56
7820.57
7820.58
7820.6
7820.62
7820.64
7820.66
7820.68
7820.7
7820.73
7820.75
7820.78
7820.81
7820.84
7820.87
7820.9
7820.94
7820.97
7821.01
7821.05
7821.09
7821.13
7821.17
7821.22
7821.26
7821.31
7821.35
7821.4
7821.45
7821.5
7821.56
7821.61
7821.66
7821.72
7821.78
7821.84
7821.89
7821.95
7822.02
7822.08
7822.14
7822.21
7822.27
7822.34
7822.41
7822.48
7822.55
7822.62
7822.69
7822.76
7822.84
7822.91
7822.99
7823.07
7823.15
7823.23
7823.31
7823.39
7823.48
7823.54
7823.68
7849.22
7817.86
7807.91
7792.01
7778.66
7766.5
7755.08
7744.12
7733.46
7723.02
7712.72
7702.53
7692.41
7682.37
7672.35
7662.34
7652.43
7642.6
7632.87
7623.1
7613.37
7603.67
7593.93
7584.31
7574.8
7565.35
7556.09
7546.83
7537.57
7528.29
7519.2
7510.21
7501.44
7492.69
7483.98
7475.26
7466.69
7458.31
7450.1
7442.14
7434.15
7426.26
7418.47
7410.75
7403.27
7395.98
7388.92
7381.91
7375.04
7368.29
7361.65
7355.26
7349.11
7343.06
7337.05
7331.28
7325.77
7320.45
7315.37
7310.42
7305.61
7300.9
7296.47
7292.35
7288.49
7284.68
7281.05
7277.56
7274.31
7271.3
7268.46
7265.85
7263.34
7260.9
7258.44
7255.79
7252.92
7250.17
7248.39
7247.53
7242.29
7230.92
7227.7
7232.57
7229.56
7228.75
7226.31
7224.87
7221.57
7221.35
7220.51
7219.6
7218.68
7217.73
7216.79
7216.22
7215.22
7214.05
7212.46
7210
7209.39
7206.8
7207.49
7212.9
7214.44
7216.65
7218.39
7220.72
7222.87
7226.11
7229.88
7233.56
7237.45
7241.42
7245.46
7249.81
7254.28
7259.07
7264.72
7268.16
7274.85
7284.81
7292.84
7301.51
7310.3
7319.42
7329.28
7339.8
7350.54
7361.73
7373.2
7384.97
7397.17
7409.72
7422.56
7435.72
7449.13
7462.83
7476.78
7491.01
7505.52
7520.25
7535.24
7550.37
7565.65
7581.12
7596.73
7612.48
7628.28
7644.1
7659.98
7675.9
7691.83
7707.76
7723.6
7739.36
7755.01
7770.59
7786.05
7801.36
7816.47
7831.38
7846.15
7860.69
7874.97
7888.99
7902.77
7916.32
7929.55
7942.47
7955.07
7967.38
7979.4
7991.07
8002.37
8013.33
8023.97
8034.27
8044.23
8053.83
8063.06
8071.98
8080.55
8088.81
8096.73
8104.32
8111.62
8118.66
8125.41
8131.86
8138.07
8144.05
8149.8
8155.35
8160.68
8165.85
8170.87
8175.71
8180.4
8184.94
8189.31
8193.5
8197.46
8201.17
8204.67
8207.92
8210.92
8213.68
8216.15
8218.33
8220.23
8221.86
8223.21
8224.26
8225.01
8225.48
8225.67
8225.59
8225.22
8224.55
8223.61
8222.42
8220.96
8219.28
8217.33
8215.13
8212.71
8210.07
8207.23
8204.19
8200.97
8197.57
8193.99
8190.26
8186.39
8182.38
8178.26
8174.03
8169.68
8165.25
8160.75
8156.18
8151.53
8146.85
8142.13
8137.39
8132.61
8127.81
8123.02
8118.23
8113.45
8108.67
8103.91
8099.19
8094.5
8089.83
8085.21
8080.64
8076.12
8071.63
8067.21
8062.84
8058.53
8054.27
8050.08
8045.94
8041.87
8037.87
8033.93
8030.06
8026.25
8022.5
8018.81
8015.2
8011.65
8008.16
8004.74
8001.37
7998.07
7994.83
7991.65
7988.53
7985.47
7982.46
7979.52
7976.63
7973.79
7971.01
7968.27
7965.59
7962.97
7960.39
7957.86
7955.37
7952.93
7950.54
7948.19
7945.89
7943.63
7941.41
7939.23
7937.09
7934.99
7932.93
7930.9
7928.91
7926.96
7925.04
7923.16
7921.3
7919.48
7917.7
7915.94
7914.21
7912.51
7910.84
7909.2
7907.59
7906
7904.44
7902.9
7901.39
7899.91
7898.44
7897
7895.59
7894.19
7892.82
7891.47
7890.13
7888.82
7887.53
7886.26
7885.01
7883.77
7882.56
7881.36
7880.18
7879.01
7877.87
7876.74
7875.62
7874.53
7873.45
7872.38
7871.33
7870.3
7869.28
7868.27
7867.28
7866.31
7865.34
7864.4
7863.46
7862.54
7861.64
7860.75
7859.87
7859
7858.15
7857.31
7856.48
7855.67
7854.87
7854.08
7853.31
7852.54
7851.79
7851.05
7850.32
7849.61
7848.9
7848.21
7847.53
7846.86
7846.2
7845.55
7844.92
7844.29
7843.68
7843.07
7842.48
7841.9
7841.33
7840.76
7840.21
7839.67
7839.14
7838.61
7838.1
7837.6
7837.1
7836.62
7836.14
7835.68
7835.22
7834.77
7834.33
7833.9
7833.48
7833.06
7832.66
7832.26
7831.87
7831.49
7831.12
7830.76
7830.4
7830.05
7829.71
7829.38
7829.05
7828.74
7828.43
7828.12
7827.83
7827.54
7827.26
7826.99
7826.73
7826.47
7826.22
7825.97
7825.74
7825.51
7825.28
7825.07
7824.86
7824.65
7824.45
7824.25
7824.06
7823.88
7823.7
7823.54
7823.37
7823.21
7823.06
7822.91
7822.77
7822.64
7822.5
7822.38
7822.26
7822.15
7822.04
7821.92
7821.82
7821.72
7821.62
7821.53
7821.44
7821.36
7821.28
7821.21
7821.14
7821.08
7821.02
7820.96
7820.91
7820.86
7820.82
7820.78
7820.74
7820.7
7820.67
7820.67
7820.65
7820.63
7820.62
7820.61
7820.59
7820.58
7820.57
7820.56
7820.55
7820.54
7820.53
7820.52
7820.52
7820.51
7820.51
7820.51
7820.51
7820.52
7820.52
7820.53
7820.53
7820.54
7820.55
7820.57
7820.58
7820.6
7820.61
7820.63
7820.65
7820.67
7820.7
7820.72
7820.75
7820.78
7820.81
7820.84
7820.87
7820.9
7820.94
7820.97
7821.01
7821.05
7821.09
7821.13
7821.17
7821.21
7821.26
7821.31
7821.35
7821.4
7821.45
7821.5
7821.55
7821.61
7821.66
7821.72
7821.77
7821.83
7821.89
7821.95
7822.01
7822.08
7822.14
7822.21
7822.27
7822.34
7822.41
7822.48
7822.55
7822.62
7822.69
7822.76
7822.84
7822.91
7822.99
7823.07
7823.15
7823.23
7823.31
7823.39
7823.47
7823.54
7823.67
7824.54
7805.13
7794.23
7782.75
7772.2
7761.88
7751.74
7741.66
7731.62
7721.6
7711.61
7701.63
7691.67
7681.73
7671.79
7661.85
7651.97
7642.19
7632.35
7622.47
7612.75
7603.08
7593.59
7584.04
7574.4
7564.73
7555.32
7546
7536.95
7527.92
7518.8
7509.65
7500.73
7491.97
7483.38
7474.79
7466.2
7457.63
7449.32
7441.44
7433.46
7425.56
7417.74
7409.97
7402.45
7395.11
7388.02
7381.12
7374.23
7367.4
7360.79
7354.4
7348.3
7342.24
7336.15
7330.35
7324.83
7319.52
7314.5
7309.52
7304.48
7299.84
7295.44
7291.32
7287.45
7283.59
7279.93
7276.33
7272.95
7269.81
7266.87
7264.12
7261.43
7258.82
7256.16
7253.31
7250.36
7247.48
7244.68
7242.05
7240.23
7239.59
7239.86
7233.99
7220.61
7217.03
7225.79
7225.75
7223.12
7222.75
7220.16
7217.91
7217.56
7217.21
7216.32
7215.59
7214.44
7213.56
7212.71
7212.51
7212.76
7212.55
7211.01
7211.33
7208.77
7210.83
7218.09
7221.15
7223.99
7226.67
7229.42
7232.39
7236.32
7240.89
7245.15
7249.66
7254.33
7259.6
7265.67
7271.93
7278.01
7284.76
7289.3
7297.44
7309.2
7318.74
7328.8
7338.83
7349.17
7360.28
7372.07
7383.98
7396.33
7408.83
7421.59
7434.63
7448.05
7461.84
7475.88
7490.18
7504.69
7519.45
7534.49
7549.62
7564.98
7580.54
7596.24
7611.99
7627.77
7643.66
7659.62
7675.62
7691.65
7707.58
7723.41
7739.18
7754.92
7770.61
7786.1
7801.41
7816.52
7831.49
7846.27
7860.87
7875.18
7889.2
7903.01
7916.58
7929.86
7942.76
7955.39
7967.72
7979.77
7991.45
8002.74
8013.74
8024.4
8034.71
8044.65
8054.26
8063.53
8072.49
8081.08
8089.33
8097.22
8104.83
8112.15
8119.22
8126
8132.48
8138.71
8144.7
8150.43
8155.98
8161.35
8166.58
8171.62
8176.49
8181.16
8185.7
8190.09
8194.3
8198.27
8201.99
8205.5
8208.78
8211.82
8214.57
8217.03
8219.21
8221.13
8222.78
8224.13
8225.15
8225.9
8226.39
8226.59
8226.49
8226.1
8225.42
8224.45
8223.23
8221.78
8220.07
8218.1
8215.88
8213.41
8210.76
8207.91
8204.85
8201.59
8198.15
8194.52
8190.77
8186.89
8182.85
8178.7
8174.43
8170.06
8165.59
8161.04
8156.43
8151.77
8147.09
8142.34
8137.56
8132.77
8127.95
8123.11
8118.3
8113.51
8108.72
8103.95
8099.2
8094.49
8089.83
8085.2
8080.61
8076.06
8071.56
8067.14
8062.77
8058.45
8054.19
8049.98
8045.84
8041.77
8037.77
8033.83
8029.96
8026.14
8022.4
8018.71
8015.08
8011.53
8008.04
8004.63
8001.27
7997.97
7994.73
7991.55
7988.42
7985.37
7982.37
7979.43
7976.54
7973.7
7970.91
7968.18
7965.51
7962.88
7960.31
7957.78
7955.29
7952.86
7950.47
7948.12
7945.82
7943.56
7941.34
7939.17
7937.03
7934.93
7932.87
7930.84
7928.86
7926.91
7924.99
7923.1
7921.25
7919.44
7917.65
7915.89
7914.17
7912.47
7910.8
7909.16
7907.55
7905.96
7904.4
7902.86
7901.35
7899.87
7898.4
7896.96
7895.55
7894.15
7892.78
7891.43
7890.09
7888.78
7887.49
7886.22
7884.97
7883.73
7882.52
7881.32
7880.14
7878.97
7877.83
7876.7
7875.58
7874.48
7873.4
7872.34
7871.29
7870.25
7869.23
7868.23
7867.24
7866.26
7865.3
7864.35
7863.42
7862.5
7861.59
7860.7
7859.82
7858.96
7858.1
7857.26
7856.44
7855.62
7854.82
7854.03
7853.26
7852.49
7851.74
7851
7850.28
7849.56
7848.86
7848.16
7847.48
7846.81
7846.15
7845.51
7844.87
7844.25
7843.63
7843.03
7842.43
7841.85
7841.28
7840.72
7840.16
7839.62
7839.09
7838.57
7838.06
7837.55
7837.06
7836.57
7836.1
7835.63
7835.18
7834.73
7834.29
7833.86
7833.44
7833.02
7832.62
7832.22
7831.83
7831.45
7831.08
7830.72
7830.36
7830.01
7829.67
7829.34
7829.02
7828.7
7828.39
7828.09
7827.79
7827.51
7827.23
7826.96
7826.69
7826.43
7826.18
7825.94
7825.71
7825.48
7825.25
7825.03
7824.82
7824.62
7824.42
7824.22
7824.03
7823.85
7823.68
7823.51
7823.35
7823.18
7823.03
7822.88
7822.75
7822.61
7822.49
7822.36
7822.23
7822.11
7822
7821.89
7821.79
7821.69
7821.59
7821.51
7821.42
7821.34
7821.26
7821.19
7821.12
7821.06
7821
7820.95
7820.89
7820.85
7820.79
7820.74
7820.73
7820.7
7820.67
7820.63
7820.61
7820.59
7820.58
7820.56
7820.55
7820.54
7820.52
7820.51
7820.5
7820.5
7820.49
7820.49
7820.49
7820.48
7820.49
7820.49
7820.49
7820.5
7820.5
7820.51
7820.52
7820.53
7820.54
7820.56
7820.57
7820.59
7820.6
7820.62
7820.64
7820.67
7820.69
7820.71
7820.74
7820.77
7820.8
7820.83
7820.86
7820.89
7820.93
7820.96
7821
7821.04
7821.08
7821.12
7821.16
7821.21
7821.25
7821.3
7821.34
7821.39
7821.44
7821.49
7821.55
7821.6
7821.66
7821.71
7821.77
7821.83
7821.89
7821.95
7822.01
7822.07
7822.13
7822.2
7822.26
7822.33
7822.4
7822.47
7822.54
7822.61
7822.68
7822.76
7822.83
7822.91
7822.98
7823.06
7823.14
7823.22
7823.3
7823.38
7823.47
7823.53
7823.67
7775.04
7768.05
7773.78
7770.08
7763.94
7756.28
7747.79
7738.78
7729.44
7719.91
7710.24
7700.49
7690.69
7680.85
7671.01
7661.17
7651.35
7641.55
7631.74
7621.92
7612.14
7602.52
7592.96
7583.38
7573.82
7564.24
7554.6
7545.17
7536.26
7527.13
7518.01
7508.95
7499.99
7491.16
7482.45
7473.83
7465.3
7456.88
7448.58
7440.43
7432.39
7424.47
7416.71
7409.07
7401.47
7394
7386.83
7379.91
7373.03
7366.3
7359.74
7353.34
7347.1
7341.02
7335.04
7329.21
7323.69
7318.43
7313.1
7307.85
7303.01
7298.37
7293.95
7289.95
7285.95
7282.05
7278.35
7274.73
7271.19
7267.93
7264.99
7262.14
7259.23
7256.4
7253.75
7251.06
7248.35
7245.47
7242.38
7239.49
7237.05
7235.01
7233.33
7231.59
7230.49
7230.66
7231.01
7225.81
7213.46
7213.17
7221.23
7218.45
7218.39
7216.16
7214.23
7214.27
7214.3
7213.58
7213.05
7212.6
7212.25
7212.24
7213.42
7215.22
7216.41
7217.31
7217.88
7218.71
7217.46
7220.7
7228.93
7232.62
7236.31
7240.07
7243.97
7248.73
7254.25
7259.64
7265.41
7271.39
7278.08
7285.59
7293.36
7300.76
7308.88
7314.44
7323.86
7337.17
7347.99
7359.37
7370.63
7382.09
7394.39
7407.29
7420.23
7433.37
7446.79
7460.53
7474.45
7488.78
7503.44
7518.35
7533.41
7548.58
7563.99
7579.62
7595.41
7611.24
7627.06
7643.05
7659.09
7675.25
7691.3
7707.23
7723.12
7739.01
7754.8
7770.56
7786.14
7801.52
7816.67
7831.66
7846.47
7861.08
7875.47
7889.55
7903.4
7917.01
7930.33
7943.24
7955.9
7968.26
7980.32
7992.05
8003.36
8014.37
8025.04
8035.39
8045.35
8054.98
8064.26
8073.26
8081.87
8090.12
8098.03
8105.67
8113.02
8120.12
8126.94
8133.46
8139.71
8145.72
8151.47
8157.06
8162.46
8167.72
8172.82
8177.71
8182.43
8186.93
8191.34
8195.57
8199.56
8203.3
8206.8
8210.11
8213.16
8215.93
8218.39
8220.58
8222.5
8224.17
8225.51
8226.54
8227.27
8227.73
8227.91
8227.82
8227.42
8226.71
8225.7
8224.46
8222.99
8221.26
8219.24
8216.99
8214.52
8211.8
8208.87
8205.76
8202.48
8199.01
8195.37
8191.55
8187.57
8183.52
8179.33
8175.02
8170.57
8166.06
8161.48
8156.87
8152.17
8147.42
8142.61
8137.81
8132.98
8128.11
8123.26
8118.44
8113.61
8108.78
8103.97
8099.23
8094.51
8089.81
8085.16
8080.53
8075.97
8071.47
8067.03
8062.66
8058.33
8054.06
8049.85
8045.7
8041.61
8037.6
8033.67
8029.8
8025.97
8022.21
8018.54
8014.93
8011.38
8007.88
8004.45
8001.1
7997.81
7994.57
7991.39
7988.27
7985.21
7982.22
7979.28
7976.39
7973.55
7970.78
7968.06
7965.38
7962.75
7960.18
7957.65
7955.17
7952.75
7950.36
7948.01
7945.71
7943.46
7941.25
7939.07
7936.93
7934.83
7932.78
7930.76
7928.77
7926.82
7924.91
7923.03
7921.18
7919.36
7917.57
7915.82
7914.1
7912.4
7910.73
7909.09
7907.48
7905.89
7904.34
7902.8
7901.29
7899.8
7898.34
7896.9
7895.49
7894.09
7892.72
7891.37
7890.03
7888.72
7887.43
7886.16
7884.9
7883.67
7882.45
7881.25
7880.07
7878.91
7877.76
7876.63
7875.52
7874.42
7873.34
7872.27
7871.22
7870.18
7869.16
7868.16
7867.17
7866.19
7865.23
7864.28
7863.35
7862.43
7861.52
7860.63
7859.75
7858.88
7858.03
7857.19
7856.37
7855.55
7854.75
7853.96
7853.18
7852.42
7851.67
7850.93
7850.2
7849.49
7848.78
7848.09
7847.41
7846.74
7846.08
7845.44
7844.8
7844.17
7843.56
7842.96
7842.36
7841.78
7841.21
7840.65
7840.1
7839.55
7839.02
7838.5
7837.99
7837.48
7836.99
7836.51
7836.03
7835.57
7835.11
7834.66
7834.23
7833.79
7833.37
7832.96
7832.56
7832.16
7831.77
7831.39
7831.02
7830.66
7830.3
7829.95
7829.61
7829.28
7828.96
7828.64
7828.33
7828.03
7827.74
7827.45
7827.17
7826.9
7826.64
7826.39
7826.14
7825.89
7825.65
7825.42
7825.2
7824.98
7824.77
7824.57
7824.37
7824.17
7823.99
7823.81
7823.63
7823.46
7823.29
7823.14
7822.99
7822.85
7822.71
7822.57
7822.43
7822.31
7822.19
7822.07
7821.96
7821.85
7821.75
7821.65
7821.56
7821.47
7821.38
7821.3
7821.23
7821.16
7821.1
7821.03
7820.97
7820.91
7820.85
7820.83
7820.8
7820.77
7820.74
7820.72
7820.7
7820.67
7820.65
7820.63
7820.6
7820.59
7820.57
7820.56
7820.54
7820.53
7820.52
7820.51
7820.5
7820.5
7820.49
7820.49
7820.49
7820.49
7820.49
7820.49
7820.5
7820.5
7820.51
7820.52
7820.53
7820.55
7820.56
7820.58
7820.59
7820.61
7820.63
7820.66
7820.68
7820.71
7820.73
7820.76
7820.79
7820.82
7820.85
7820.88
7820.92
7820.95
7820.99
7821.03
7821.07
7821.11
7821.15
7821.2
7821.24
7821.29
7821.34
7821.39
7821.44
7821.49
7821.54
7821.59
7821.65
7821.7
7821.76
7821.82
7821.88
7821.94
7822
7822.06
7822.13
7822.19
7822.26
7822.32
7822.39
7822.46
7822.53
7822.6
7822.68
7822.75
7822.82
7822.9
7822.98
7823.05
7823.13
7823.21
7823.29
7823.37
7823.46
7823.53
7823.66
7744.7
7751.83
7760.79
7761.35
7757.96
7752.02
7744.62
7736.33
7727.48
7718.28
7708.86
7699.27
7689.59
7679.85
7670.06
7660.26
7650.46
7640.66
7630.88
7621.11
7611.37
7601.67
7592.02
7582.41
7572.84
7563.33
7553.85
7544.46
7535.21
7526
7516.85
7507.79
7498.83
7489.95
7481.16
7472.49
7463.95
7455.53
7447.22
7439.01
7430.91
7422.97
7415.19
7407.55
7400.02
7392.62
7385.29
7378.13
7371.27
7364.63
7358.07
7351.67
7345.4
7339.29
7333.34
7327.59
7322.08
7316.69
7311.49
7306.43
7301.34
7296.4
7291.96
7288
7283.9
7279.85
7276.23
7272.72
7269.29
7265.95
7262.67
7259.51
7256.61
7253.82
7251.26
7248.57
7245.94
7243.3
7240.61
7238.03
7235.57
7233.05
7230.83
7228.9
7227.53
7226.43
7225.16
7224.26
7225.04
7226.08
7220.85
7207.91
7208.27
7218.62
7215.96
7215.56
7213.46
7211.7
7212.46
7213.62
7213.61
7213.99
7214.42
7215.07
7215.95
7218
7220.7
7222.88
7225.6
7225.88
7227.7
7226.5
7230.24
7239.93
7244.4
7248.95
7253.64
7258.68
7264.67
7271.48
7278.17
7285.34
7292.71
7300.79
7309.72
7318.68
7327.17
7336.51
7343.11
7353.95
7368.8
7380.8
7393.33
7405.63
7418.2
7430.94
7444.47
7458.54
7472.58
7487.04
7501.69
7516.67
7531.9
7547.26
7562.68
7578.36
7594.18
7610.2
7626.28
7642.28
7658.38
7674.65
7690.82
7706.81
7722.81
7738.79
7754.7
7770.57
7786.19
7801.64
7816.93
7831.98
7846.79
7861.45
7875.86
7890.07
7904.04
7917.66
7930.96
7943.93
7956.63
7969.02
7981.09
7992.91
8004.32
8015.29
8025.98
8036.33
8046.37
8056.05
8065.35
8074.36
8082.95
8091.23
8099.23
8106.92
8114.36
8121.49
8128.33
8134.87
8141.15
8147.19
8153.04
8158.67
8164.11
8169.38
8174.53
8179.47
8184.22
8188.74
8193.11
8197.31
8201.36
8205.16
8208.7
8211.94
8214.95
8217.72
8220.22
8222.49
8224.45
8226.07
8227.37
8228.38
8229.12
8229.57
8229.72
8229.6
8229.19
8228.43
8227.41
8226.14
8224.63
8222.84
8220.74
8218.44
8215.92
8213.21
8210.23
8207.01
8203.65
8200.14
8196.44
8192.54
8188.53
8184.4
8180.18
8175.78
8171.27
8166.71
8162.08
8157.4
8152.67
8147.86
8142.99
8138.12
8133.24
8128.35
8123.46
8118.6
8113.73
8108.86
8104.02
8099.22
8094.48
8089.78
8085.07
8080.44
8075.86
8071.34
8066.89
8062.51
8058.17
8053.89
8049.67
8045.5
8041.41
8037.39
8033.45
8029.57
8025.74
8021.99
8018.3
8014.71
8011.16
8007.66
8004.23
8000.88
7997.58
7994.34
7991.17
7988.06
7985.02
7982.01
7979.07
7976.18
7973.36
7970.6
7967.88
7965.2
7962.57
7960
7957.48
7955.01
7952.59
7950.21
7947.86
7945.57
7943.31
7941.1
7938.93
7936.8
7934.71
7932.66
7930.64
7928.65
7926.71
7924.8
7922.92
7921.07
7919.25
7917.47
7915.72
7914
7912.3
7910.64
7909
7907.39
7905.8
7904.25
7902.72
7901.21
7899.72
7898.25
7896.82
7895.4
7894.01
7892.63
7891.28
7889.95
7888.64
7887.35
7886.08
7884.82
7883.59
7882.37
7881.17
7879.99
7878.82
7877.67
7876.55
7875.43
7874.33
7873.25
7872.18
7871.13
7870.09
7869.07
7868.07
7867.07
7866.1
7865.14
7864.19
7863.25
7862.33
7861.43
7860.54
7859.66
7858.79
7857.93
7857.09
7856.27
7855.45
7854.65
7853.86
7853.09
7852.32
7851.57
7850.83
7850.1
7849.39
7848.68
7847.99
7847.31
7846.64
7845.98
7845.34
7844.7
7844.08
7843.46
7842.86
7842.27
7841.69
7841.11
7840.55
7840
7839.46
7838.93
7838.41
7837.9
7837.4
7836.9
7836.42
7835.94
7835.48
7835.02
7834.58
7834.14
7833.71
7833.29
7832.88
7832.47
7832.08
7831.69
7831.31
7830.94
7830.58
7830.22
7829.87
7829.54
7829.2
7828.88
7828.57
7828.26
7827.96
7827.67
7827.38
7827.11
7826.84
7826.57
7826.32
7826.06
7825.82
7825.59
7825.36
7825.13
7824.92
7824.71
7824.5
7824.31
7824.11
7823.93
7823.75
7823.57
7823.41
7823.25
7823.09
7822.94
7822.78
7822.65
7822.51
7822.38
7822.25
7822.13
7822.02
7821.91
7821.8
7821.7
7821.6
7821.5
7821.42
7821.34
7821.27
7821.18
7821.11
7821.04
7820.97
7820.94
7820.9
7820.86
7820.81
7820.77
7820.74
7820.71
7820.68
7820.66
7820.63
7820.61
7820.59
7820.57
7820.56
7820.54
7820.52
7820.51
7820.5
7820.49
7820.48
7820.48
7820.47
7820.47
7820.47
7820.47
7820.47
7820.47
7820.47
7820.48
7820.49
7820.5
7820.51
7820.52
7820.53
7820.54
7820.56
7820.58
7820.6
7820.62
7820.64
7820.66
7820.69
7820.72
7820.74
7820.77
7820.8
7820.84
7820.87
7820.9
7820.94
7820.98
7821.02
7821.06
7821.1
7821.14
7821.18
7821.23
7821.28
7821.32
7821.37
7821.42
7821.47
7821.53
7821.58
7821.64
7821.69
7821.75
7821.81
7821.87
7821.93
7821.99
7822.05
7822.11
7822.18
7822.25
7822.31
7822.38
7822.45
7822.52
7822.59
7822.66
7822.74
7822.81
7822.89
7822.96
7823.04
7823.12
7823.2
7823.28
7823.36
7823.45
7823.52
7823.65
7774.4
7765.76
7765.92
7762.54
7757.44
7750.87
7743.26
7734.95
7726.14
7717.01
7707.65
7698.12
7688.48
7678.76
7669
7659.2
7649.4
7639.61
7629.82
7620.04
7610.28
7600.55
7590.86
7581.21
7571.61
7562.06
7552.58
7543.19
7533.87
7524.6
7515.4
7506.29
7497.27
7488.29
7479.37
7470.68
7462.25
7453.81
7445.45
7437.1
7428.77
7420.74
7413.21
7405.62
7398.05
7390.61
7383.06
7375.47
7368.44
7362.26
7355.93
7349.53
7343.26
7337.1
7331.13
7325.41
7319.86
7314.44
7309.2
7304.17
7299.31
7294.61
7290
7285.39
7281.15
7277.24
7273.76
7270.17
7266.68
7263.33
7260.12
7256.93
7253.77
7250.88
7248.37
7245.74
7243.13
7240.63
7238.27
7235.84
7233.41
7231.47
7229.61
7227.77
7225.91
7224.07
7222.49
7221.24
7220.23
7219.45
7219.11
7220.2
7221.83
7216.74
7203.28
7204.81
7217.31
7214.46
7214.19
7212.66
7211.66
7213.56
7215.65
7216.66
7217.82
7219.25
7220.71
7222.82
7224.84
7227.92
7231.44
7234.73
7235.92
7238.52
7237.64
7242.31
7253.54
7259.12
7264.94
7270.69
7276.95
7284.35
7292.67
7300.7
7309.09
7317.73
7327.07
7337.2
7347.38
7357.14
7367.72
7375.21
7387.21
7402.98
7416.37
7429.8
7443.05
7456.63
7470.14
7484.49
7499.61
7514.81
7530.1
7545.56
7561.09
7576.81
7592.82
7608.98
7625.15
7641.36
7657.61
7673.95
7690.22
7706.38
7722.43
7738.69
7754.73
7770.57
7786.21
7801.73
7817.19
7832.38
7847.33
7862.02
7876.52
7890.81
7904.77
7918.44
7931.81
7944.91
7957.71
7970.13
7982.24
7994.07
8005.52
8016.58
8027.26
8037.69
8047.82
8057.53
8066.85
8075.85
8084.57
8092.94
8100.93
8108.73
8116.21
8123.37
8130.2
8136.78
8143.15
8149.34
8155.27
8160.97
8166.38
8171.65
8176.82
8181.82
8186.59
8191.17
8195.5
8199.74
8203.78
8207.57
8211.11
8214.34
8217.36
8220.14
8222.71
8224.96
8226.88
8228.49
8229.72
8230.77
8231.56
8232.01
8232.12
8231.88
8231.4
8230.64
8229.64
8228.35
8226.72
8224.8
8222.69
8220.33
8217.79
8214.99
8211.94
8208.65
8205.17
8201.55
8197.77
8193.86
8189.79
8185.58
8181.25
8176.78
8172.17
8167.53
8162.86
8158.12
8153.25
8148.36
8143.46
8138.53
8133.6
8128.69
8123.75
8118.81
8113.86
8108.94
8104.07
8099.23
8094.45
8089.73
8085
8080.32
8075.72
8071.21
8066.74
8062.3
8057.93
8053.64
8049.43
8045.27
8041.15
8037.13
8033.2
8029.29
8025.45
8021.7
8018.04
8014.44
8010.88
8007.38
8003.95
8000.6
7997.32
7994.09
7990.92
7987.82
7984.77
7981.77
7978.82
7975.95
7973.14
7970.38
7967.65
7964.98
7962.36
7959.81
7957.29
7954.82
7952.41
7950.02
7947.68
7945.39
7943.15
7940.95
7938.78
7936.65
7934.56
7932.51
7930.5
7928.51
7926.57
7924.66
7922.8
7920.95
7919.13
7917.35
7915.6
7913.89
7912.19
7910.53
7908.89
7907.29
7905.7
7904.14
7902.61
7901.11
7899.62
7898.16
7896.72
7895.3
7893.91
7892.54
7891.19
7889.85
7888.54
7887.25
7885.98
7884.72
7883.49
7882.27
7881.07
7879.89
7878.72
7877.57
7876.44
7875.32
7874.23
7873.14
7872.08
7871.02
7869.99
7868.96
7867.96
7866.96
7865.99
7865.02
7864.07
7863.14
7862.22
7861.31
7860.42
7859.54
7858.67
7857.81
7856.97
7856.15
7855.33
7854.53
7853.74
7852.97
7852.2
7851.45
7850.71
7849.98
7849.27
7848.56
7847.87
7847.19
7846.52
7845.86
7845.22
7844.58
7843.96
7843.34
7842.74
7842.15
7841.57
7841
7840.44
7839.89
7839.35
7838.82
7838.29
7837.78
7837.28
7836.79
7836.31
7835.84
7835.37
7834.92
7834.47
7834.03
7833.6
7833.18
7832.77
7832.37
7831.98
7831.59
7831.21
7830.84
7830.48
7830.13
7829.78
7829.44
7829.11
7828.79
7828.47
7828.16
7827.87
7827.58
7827.29
7827.02
7826.74
7826.48
7826.23
7825.98
7825.74
7825.5
7825.27
7825.05
7824.84
7824.63
7824.42
7824.22
7824.04
7823.86
7823.68
7823.5
7823.33
7823.17
7823.02
7822.86
7822.72
7822.58
7822.44
7822.31
7822.19
7822.06
7821.95
7821.84
7821.73
7821.64
7821.54
7821.45
7821.35
7821.26
7821.17
7821.14
7821.09
7821.04
7820.99
7820.94
7820.9
7820.86
7820.83
7820.79
7820.76
7820.72
7820.69
7820.66
7820.64
7820.61
7820.59
7820.57
7820.55
7820.53
7820.52
7820.5
7820.49
7820.48
7820.47
7820.46
7820.46
7820.45
7820.45
7820.45
7820.45
7820.45
7820.46
7820.46
7820.47
7820.48
7820.49
7820.5
7820.51
7820.53
7820.54
7820.56
7820.58
7820.6
7820.62
7820.65
7820.67
7820.7
7820.73
7820.76
7820.79
7820.82
7820.85
7820.89
7820.92
7820.96
7821
7821.04
7821.08
7821.13
7821.17
7821.21
7821.26
7821.31
7821.36
7821.41
7821.46
7821.51
7821.57
7821.62
7821.68
7821.73
7821.79
7821.85
7821.91
7821.98
7822.04
7822.1
7822.17
7822.23
7822.3
7822.37
7822.44
7822.51
7822.58
7822.65
7822.73
7822.8
7822.88
7822.95
7823.03
7823.11
7823.19
7823.27
7823.35
7823.44
7823.5
7823.64
7807.63
7787.57
7778.01
7768.89
7760.52
7752.1
7743.47
7734.58
7725.39
7716.05
7706.64
7697.11
7687.43
7677.68
7667.86
7657.92
7647.96
7638.21
7628.57
7618.78
7608.99
7599.23
7589.49
7579.79
7570.06
7560.26
7550.68
7541.52
7532.23
7522.92
7513.67
7504.5
7495.31
7485.88
7476.77
7468.47
7460.24
7451.74
7443.12
7434.16
7425.69
7417.68
7410.55
7403.27
7395.69
7387.93
7380.01
7372.82
7365.84
7359.03
7352.57
7346.82
7340.67
7334.54
7328.57
7322.78
7317.16
7311.71
7306.45
7301.41
7296.54
7291.81
7287.06
7282.36
7278.19
7274.19
7270.71
7267.17
7263.67
7260.3
7257.07
7253.96
7250.81
7247.64
7244.87
7242.39
7240.09
7237.68
7235.37
7233.14
7231.04
7229.09
7227.19
7225.32
7223.69
7222.42
7221.24
7219.88
7218.43
7216.97
7215.99
7215.43
7215.23
7215.33
7217.25
7219.53
7214.25
7199.7
7202.92
7217.66
7215.69
7215.81
7214.97
7214.45
7217.62
7220.69
7222.85
7224.77
7227.05
7229.18
7231.69
7234.48
7238.27
7242.58
7246.66
7248.59
7251.92
7251.52
7257.56
7270.74
7277.61
7284.63
7291.73
7299.33
7308.18
7317.81
7327.15
7336.75
7346.48
7356.97
7368.35
7379.53
7391.24
7402.52
7414.12
7422.89
7436.05
7453.6
7467.92
7482.53
7497.18
7512.01
7527.43
7543.4
7559.23
7575.22
7591.27
7607.28
7623.58
7640.23
7656.67
7673.1
7689.42
7705.7
7722.21
7738.48
7754.59
7770.57
7786.29
7801.85
7817.47
7832.81
7847.89
7862.72
7877.3
7891.62
7905.64
7919.38
7932.87
7946.1
7958.96
7971.48
7983.66
7995.51
8007.02
8018.17
8028.97
8039.46
8049.61
8059.38
8068.81
8077.84
8086.59
8095.1
8103.23
8111.05
8118.57
8125.81
8132.72
8139.35
8145.82
8152.06
8158.06
8163.82
8169.37
8174.63
8179.74
8184.77
8189.62
8194.24
8198.65
8202.84
8206.77
8210.58
8214.17
8217.46
8220.4
8223.21
8225.76
8227.99
8229.9
8231.51
8232.69
8233.75
8234.51
8234.92
8235
8234.78
8234.2
8233.38
8232.32
8230.95
8229.28
8227.32
8225.08
8222.68
8220.03
8217.12
8213.99
8210.65
8207.11
8203.32
8199.46
8195.47
8191.28
8186.96
8182.52
8177.97
8173.3
8168.57
8163.79
8158.93
8153.98
8149.03
8144.06
8139.03
8134.04
8129.04
8124.03
8119.03
8114.03
8109.04
8104.14
8099.28
8094.45
8089.66
8084.92
8080.19
8075.56
8071.02
8066.51
8062.07
8057.67
8053.35
8049.13
8044.96
8040.86
8036.83
8032.87
8028.97
8025.12
8021.38
8017.71
8014.1
8010.55
8007.06
8003.64
8000.27
7996.99
7993.77
7990.61
7987.51
7984.47
7981.48
7978.54
7975.68
7972.87
7970.1
7967.39
7964.72
7962.12
7959.57
7957.06
7954.6
7952.18
7949.8
7947.48
7945.2
7942.95
7940.75
7938.59
7936.47
7934.38
7932.34
7930.33
7928.36
7926.41
7924.51
7922.64
7920.8
7918.99
7917.21
7915.47
7913.75
7912.06
7910.4
7908.77
7907.16
7905.58
7904.02
7902.49
7900.98
7899.5
7898.04
7896.6
7895.19
7893.79
7892.42
7891.07
7889.74
7888.42
7887.13
7885.86
7884.6
7883.36
7882.15
7880.95
7879.76
7878.6
7877.45
7876.32
7875.2
7874.1
7873.01
7871.95
7870.89
7869.85
7868.83
7867.82
7866.83
7865.85
7864.88
7863.93
7863
7862.08
7861.17
7860.27
7859.39
7858.52
7857.67
7856.83
7856
7855.19
7854.39
7853.6
7852.82
7852.05
7851.3
7850.56
7849.84
7849.12
7848.42
7847.72
7847.04
7846.38
7845.72
7845.07
7844.44
7843.81
7843.2
7842.6
7842.01
7841.43
7840.86
7840.3
7839.75
7839.21
7838.68
7838.16
7837.65
7837.15
7836.66