/*--------------------------------*- C++ -*----------------------------------*\
| =========                 |                                                 |
| \\      /  F ield         | OpenFOAM: The Open Source CFD Toolbox           |
|  \\    /   O peration     | Version:  v2006                                 |
|   \\  /    A nd           | Website:  www.openfoam.com                      |
|    \\/     M anipulation  |                                                 |
\*---------------------------------------------------------------------------*/
FoamFile
{
    version     2.0;
    format      ascii;
    class       surfaceScalarField;
    location    "4";
    object      phi;
}
// * * * * * * * * * * * * * * * * * * * * * * * * * * * * * * * * * * * * * //

dimensions      [0 3 -1 0 0 0 0];
oriented        oriented;


internalField   nonuniform List<scalar> 
65390
(
-3.20485e-06
-2.41693e-05
-5.40874e-06
2.20375e-06
-8.65512e-06
3.24644e-06
-1.24413e-05
3.78644e-06
-1.62364e-05
3.79469e-06
-1.99628e-05
3.72668e-06
-2.35135e-05
3.55103e-06
-2.68807e-05
3.36695e-06
-3.00839e-05
3.20315e-06
-3.30922e-05
3.00822e-06
-3.58942e-05
2.80175e-06
-3.84591e-05
2.56456e-06
-4.08363e-05
2.37695e-06
-4.30877e-05
2.25108e-06
-4.53712e-05
2.28297e-06
-4.77835e-05
2.41169e-06
-5.02768e-05
2.49252e-06
-5.26174e-05
2.33984e-06
-5.46191e-05
2.00084e-06
-5.63679e-05
1.74796e-06
-5.80704e-05
1.70172e-06
-5.99043e-05
1.83312e-06
-6.18609e-05
1.95585e-06
-6.38726e-05
2.01099e-06
-6.59146e-05
2.0414e-06
-6.79766e-05
2.06153e-06
-6.99794e-05
2.00235e-06
-7.17154e-05
1.73567e-06
-7.32526e-05
1.53706e-06
-7.47733e-05
1.52052e-06
-7.65133e-05
1.74002e-06
-7.83275e-05
1.81424e-06
-7.99462e-05
1.61865e-06
-8.1249e-05
1.30287e-06
-8.24107e-05
1.16171e-06
-8.36874e-05
1.27673e-06
-8.52806e-05
1.59334e-06
-8.70674e-05
1.78681e-06
-8.87671e-05
1.69978e-06
-9.00476e-05
1.2805e-06
-9.09102e-05
8.6264e-07
-9.17409e-05
8.30598e-07
-9.27213e-05
9.80391e-07
-9.38861e-05
1.16475e-06
-9.5202e-05
1.31591e-06
-9.64122e-05
1.21006e-06
-9.73723e-05
9.60051e-07
-9.81033e-05
7.30919e-07
-9.87222e-05
6.18819e-07
-9.93287e-05
6.06424e-07
-0.000100025
6.9638e-07
-0.000100677
6.52191e-07
-0.00010112
4.42785e-07
-0.000101399
2.7825e-07
-0.000101714
3.15463e-07
-0.000102205
4.91203e-07
-0.000102858
6.52669e-07
-0.000103463
6.05159e-07
-0.000103801
3.38332e-07
-0.000103793
-7.37404e-09
-0.00010368
-1.13792e-07
-0.000103616
-6.3119e-08
-0.000103595
-2.08362e-08
-0.000103402
-1.93301e-07
-0.000102661
-7.4093e-07
-0.000101268
-1.39267e-06
-9.94432e-05
-1.82432e-06
-9.73148e-05
-2.12824e-06
-9.48378e-05
-2.4767e-06
-9.17971e-05
-3.0405e-06
-8.78872e-05
-3.90971e-06
-8.29687e-05
-4.91843e-06
-7.69686e-05
-6.00002e-06
-7.02738e-05
-6.69477e-06
-6.37039e-05
-6.56987e-06
-5.7719e-05
-5.98495e-06
-5.18103e-05
-5.9088e-06
-4.50681e-05
-6.7423e-06
-3.95845e-05
-5.4837e-06
-3.63649e-05
-3.21975e-06
-3.61991e-05
-1.65832e-07
-3.76388e-05
1.4396e-06
-3.82508e-05
6.1194e-07
-3.89748e-05
7.23926e-07
-3.98845e-05
9.09642e-07
-3.96107e-05
-2.73827e-07
-3.91191e-05
-4.91653e-07
-3.88893e-05
-2.2987e-07
-3.8893e-05
3.64831e-09
-3.86434e-05
-2.49592e-07
-3.83703e-05
-2.73131e-07
-3.77532e-05
-6.17196e-07
-3.66395e-05
-1.11374e-06
-3.51918e-05
-1.44766e-06
-3.29946e-05
-2.19731e-06
-2.99746e-05
-3.02004e-06
-2.60477e-05
-3.92689e-06
-2.18824e-05
-4.16535e-06
-1.79007e-05
-3.98165e-06
-1.57911e-05
-2.10962e-06
-1.53847e-05
-4.06386e-07
-1.57206e-05
3.3582e-07
-1.63863e-05
6.65721e-07
-1.69465e-05
5.60181e-07
-1.77425e-05
7.95976e-07
-1.81729e-05
4.30319e-07
-1.82685e-05
9.55729e-08
-1.83817e-05
1.13154e-07
-1.86225e-05
2.40805e-07
-1.88705e-05
2.47954e-07
-1.90579e-05
1.87355e-07
-1.92131e-05
1.55067e-07
-1.91827e-05
-3.04127e-08
-1.88883e-05
-2.94496e-07
-1.82179e-05
-6.70519e-07
-1.71681e-05
-1.04982e-06
-1.56857e-05
-1.4825e-06
-1.47474e-05
-9.38363e-07
-1.46451e-05
-1.02416e-07
-1.4867e-05
2.21845e-07
-1.52285e-05
3.61421e-07
-1.55178e-05
2.89316e-07
-1.59944e-05
4.76541e-07
-1.63776e-05
3.83165e-07
-1.66045e-05
2.2676e-07
-1.68576e-05
2.53093e-07
-1.70938e-05
2.36208e-07
-1.73205e-05
2.26629e-07
-1.75657e-05
2.45227e-07
-1.77774e-05
2.11717e-07
-1.79565e-05
1.79044e-07
-1.81326e-05
1.76179e-07
-1.82927e-05
1.6013e-07
-1.8442e-05
1.49329e-07
-1.85846e-05
1.42568e-07
-1.87209e-05
1.36388e-07
-1.88492e-05
1.2824e-07
-1.8965e-05
1.15863e-07
-1.90724e-05
1.07361e-07
-1.91693e-05
9.69643e-08
-1.92552e-05
8.59475e-08
-1.9329e-05
7.38185e-08
-1.93838e-05
5.48502e-08
-1.94253e-05
4.14391e-08
-1.94569e-05
3.15999e-08
-1.9475e-05
1.81282e-08
-1.94774e-05
2.47634e-09
-1.94605e-05
-1.69583e-08
-1.9428e-05
-3.24716e-08
-1.9384e-05
-4.40085e-08
-1.93289e-05
-5.51061e-08
-1.92595e-05
-6.94097e-08
-1.91703e-05
-8.92739e-08
-1.90614e-05
-1.08833e-07
-1.8938e-05
-1.23419e-07
-1.88026e-05
-1.3529e-07
-1.86562e-05
-1.46315e-07
-1.84926e-05
-1.63523e-07
-1.83083e-05
-1.84191e-07
-1.8107e-05
-2.01188e-07
-1.78937e-05
-2.13248e-07
-1.76697e-05
-2.23832e-07
-1.74262e-05
-2.43364e-07
-1.71622e-05
-2.63952e-07
-1.68824e-05
-2.79638e-07
-1.6592e-05
-2.90264e-07
-1.62873e-05
-3.04611e-07
-1.5959e-05
-3.28262e-07
-1.56104e-05
-3.48461e-07
-1.52484e-05
-3.61947e-07
-1.48754e-05
-3.72864e-07
-1.44851e-05
-3.9024e-07
-1.40689e-05
-4.16151e-07
-1.36322e-05
-4.36638e-07
-1.31825e-05
-4.49586e-07
-1.27209e-05
-4.61604e-07
-1.22417e-05
-4.79109e-07
-1.17415e-05
-5.00123e-07
-1.12214e-05
-5.20029e-07
-1.06855e-05
-5.35863e-07
-1.01392e-05
-5.46215e-07
-9.57968e-06
-5.59389e-07
-9.00382e-06
-5.75776e-07
-8.41133e-06
-5.924e-07
-7.80958e-06
-6.01677e-07
-7.20795e-06
-6.0157e-07
-6.59819e-06
-6.0972e-07
-5.97202e-06
-6.26144e-07
-5.33854e-06
-6.33477e-07
-4.70927e-06
-6.2929e-07
-4.08281e-06
-6.26507e-07
-3.45864e-06
-6.24231e-07
-2.83873e-06
-6.19999e-07
-2.22367e-06
-6.15167e-07
-1.6199e-06
-6.03891e-07
-1.02652e-06
-5.93521e-07
-4.44764e-07
-5.81903e-07
1.19654e-07
-5.64571e-07
6.65556e-07
-5.46059e-07
1.19589e-06
-5.30495e-07
1.71441e-06
-5.18675e-07
2.22253e-06
-5.08269e-07
2.71528e-06
-4.92912e-07
3.18841e-06
-4.73277e-07
3.64458e-06
-4.56327e-07
4.08743e-06
-4.43007e-07
4.51929e-06
-4.32018e-07
4.94111e-06
-4.21974e-07
5.34895e-06
-4.07995e-07
5.74021e-06
-3.91408e-07
6.11697e-06
-3.7691e-07
6.4827e-06
-3.65873e-07
6.83716e-06
-3.54592e-07
7.17628e-06
-3.39234e-07
7.49941e-06
-3.23237e-07
7.81077e-06
-3.11446e-07
8.11058e-06
-2.9987e-07
8.39962e-06
-2.89093e-07
8.67678e-06
-2.77186e-07
8.93752e-06
-2.60749e-07
9.18201e-06
-2.44476e-07
9.41452e-06
-2.32475e-07
9.63663e-06
-2.22065e-07
9.84864e-06
-2.11938e-07
1.00485e-05
-1.99718e-07
1.02327e-05
-1.84125e-07
1.04029e-05
-1.70125e-07
1.0562e-05
-1.58933e-07
1.07095e-05
-1.47435e-07
1.08454e-05
-1.3583e-07
1.09715e-05
-1.25946e-07
1.10847e-05
-1.13213e-07
1.11844e-05
-9.95936e-08
1.12733e-05
-8.88927e-08
1.13521e-05
-7.88407e-08
1.1421e-05
-6.89288e-08
1.14802e-05
-5.92387e-08
1.15284e-05
-4.82418e-08
1.15659e-05
-3.75718e-08
1.15939e-05
-2.81421e-08
1.16136e-05
-1.98366e-08
1.1624e-05
-1.0515e-08
1.16253e-05
-1.35725e-09
1.16185e-05
6.7258e-09
1.1604e-05
1.44235e-08
1.15837e-05
2.03286e-08
1.15556e-05
2.80616e-08
1.15188e-05
3.68074e-08
1.14756e-05
4.32106e-08
1.14279e-05
4.77338e-08
1.13751e-05
5.28579e-08
1.13158e-05
5.93537e-08
1.12507e-05
6.5143e-08
1.11819e-05
6.87832e-08
1.11084e-05
7.35669e-08
1.10305e-05
7.7922e-08
1.0949e-05
8.15037e-08
1.08645e-05
8.45434e-08
1.07771e-05
8.74846e-08
1.0686e-05
9.11384e-08
1.05919e-05
9.41294e-08
1.04962e-05
9.57774e-08
1.03993e-05
9.69464e-08
1.03004e-05
9.88833e-08
1.0199e-05
1.01446e-07
1.00954e-05
1.03626e-07
9.98982e-06
1.0554e-07
9.88379e-06
1.06021e-07
9.77837e-06
1.05401e-07
9.67261e-06
1.05739e-07
9.56596e-06
1.06633e-07
9.4577e-06
1.08253e-07
9.34805e-06
1.09641e-07
9.23839e-06
1.09668e-07
9.12923e-06
1.09161e-07
9.0205e-06
1.0875e-07
8.91161e-06
1.08894e-07
8.80221e-06
1.09404e-07
8.69279e-06
1.09424e-07
8.58443e-06
1.08359e-07
8.4759e-06
1.0854e-07
8.36612e-06
1.09788e-07
8.2568e-06
1.09347e-07
8.14855e-06
1.08278e-07
8.04148e-06
1.07112e-07
7.93472e-06
1.06801e-07
7.82805e-06
1.06704e-07
7.72077e-06
1.07305e-07
7.6136e-06
1.07188e-07
7.50687e-06
1.06748e-07
7.4012e-06
1.05676e-07
7.29677e-06
1.04433e-07
7.19244e-06
1.04331e-07
7.08741e-06
1.05042e-07
6.98261e-06
1.04808e-07
6.87835e-06
1.04279e-07
6.77466e-06
1.03709e-07
6.67169e-06
1.02989e-07
6.569e-06
1.02718e-07
6.46623e-06
1.02789e-07
6.36362e-06
1.02643e-07
6.26139e-06
1.02258e-07
6.16019e-06
1.01232e-07
6.05916e-06
1.01066e-07
5.9581e-06
1.01097e-07
5.85731e-06
1.00825e-07
5.75737e-06
9.99726e-08
5.65865e-06
9.87522e-08
5.55962e-06
9.90586e-08
5.46066e-06
9.89815e-08
5.36213e-06
9.85531e-08
5.26457e-06
9.75824e-08
5.16787e-06
9.67186e-08
5.07158e-06
9.63065e-08
4.97565e-06
9.5951e-08
4.88024e-06
9.54208e-08
4.78591e-06
9.43456e-08
4.69244e-06
9.34795e-08
4.59933e-06
9.31231e-08
4.50675e-06
9.25938e-08
4.41493e-06
9.18308e-08
4.32446e-06
9.04709e-08
4.23517e-06
8.92983e-08
4.14598e-06
8.91986e-08
4.05748e-06
8.8507e-08
3.97029e-06
8.71933e-08
3.88471e-06
8.55858e-08
3.79974e-06
8.49648e-08
3.71529e-06
8.44535e-08
3.63183e-06
8.34632e-08
3.54937e-06
8.24585e-08
3.46821e-06
8.11614e-08
3.38836e-06
7.98414e-08
3.30966e-06
7.87027e-08
3.23205e-06
7.7607e-08
3.15546e-06
7.65856e-08
3.07985e-06
7.55968e-08
3.00535e-06
7.44962e-08
2.93219e-06
7.3151e-08
2.86039e-06
7.1795e-08
2.78936e-06
7.10263e-08
2.71912e-06
7.0237e-08
2.64991e-06
6.91968e-08
2.58183e-06
6.80808e-08
2.5151e-06
6.67187e-08
2.44968e-06
6.54203e-08
2.38505e-06
6.46203e-08
2.32126e-06
6.37868e-08
2.25839e-06
6.28635e-08
2.19694e-06
6.1444e-08
2.13667e-06
6.02644e-08
2.07696e-06
5.97006e-08
2.0181e-06
5.88567e-08
1.96021e-06
5.78809e-08
1.90349e-06
5.67201e-08
1.84773e-06
5.5748e-08
1.79255e-06
5.51711e-08
1.73823e-06
5.43158e-08
1.68496e-06
5.32669e-08
1.63269e-06
5.22615e-08
1.5811e-06
5.15835e-08
1.53021e-06
5.08928e-08
1.48013e-06
5.00754e-08
1.43083e-06
4.92977e-08
1.38251e-06
4.831e-08
1.33496e-06
4.75487e-08
1.28796e-06
4.70009e-08
1.24164e-06
4.63159e-08
1.19601e-06
4.56211e-08
1.15115e-06
4.48565e-08
1.10721e-06
4.39398e-08
1.064e-06
4.32079e-08
1.02142e-06
4.25759e-08
9.79502e-07
4.19172e-08
9.38374e-07
4.11245e-08
8.9793e-07
4.04414e-08
8.58005e-07
3.99215e-08
8.18656e-07
3.93453e-08
7.79888e-07
3.87646e-08
7.41802e-07
3.80824e-08
7.04515e-07
3.72845e-08
6.67888e-07
3.66246e-08
6.31788e-07
3.60985e-08
5.9618e-07
3.5606e-08
5.61067e-07
3.5111e-08
5.26554e-07
3.45119e-08
4.92625e-07
3.39263e-08
4.5934e-07
3.32833e-08
4.26654e-07
3.26843e-08
3.94375e-07
3.22766e-08
3.62674e-07
3.16983e-08
3.31768e-07
3.0904e-08
3.01502e-07
3.02638e-08
2.71503e-07
2.99961e-08
2.42146e-07
2.93549e-08
2.13435e-07
2.87085e-08
1.85145e-07
2.82871e-08
1.57367e-07
2.7776e-08
1.30212e-07
2.71524e-08
1.03706e-07
2.65032e-08
7.77699e-08
2.59337e-08
5.24284e-08
2.53387e-08
2.75182e-08
2.49072e-08
3.08097e-09
2.44341e-08
-2.09855e-08
2.40633e-08
-4.4486e-08
2.34976e-08
-6.76969e-08
2.32081e-08
-9.01725e-08
2.24732e-08
-1.12392e-07
2.22173e-08
-1.34142e-07
2.17478e-08
-1.55471e-07
2.13269e-08
-1.76237e-07
2.07645e-08
-1.9629e-07
2.0051e-08
-2.16216e-07
1.99235e-08
-2.35295e-07
1.9078e-08
-2.53538e-07
1.82415e-08
-2.71365e-07
1.78258e-08
-2.87492e-07
1.61257e-08
-3.02986e-07
1.5493e-08
-3.20592e-07
1.76047e-08
-3.36229e-07
1.56353e-08
-3.51352e-07
1.51213e-08
-3.67018e-07
1.56631e-08
-3.70929e-07
3.90903e-09
-3.75668e-07
4.73648e-09
-3.96291e-07
2.06202e-08
-4.05317e-07
9.02315e-09
-4.31365e-07
2.60452e-08
-4.75318e-07
4.39501e-08
-5.5332e-07
7.79996e-08
-6.30738e-07
7.74149e-08
-6.73652e-07
4.29117e-08
-7.13349e-07
3.96946e-08
-7.40466e-07
2.71143e-08
-7.64486e-07
2.40178e-08
-7.84056e-07
1.95667e-08
-8.02989e-07
1.89298e-08
-8.19492e-07
1.65006e-08
-8.34613e-07
1.51188e-08
-8.46794e-07
1.21791e-08
-8.58896e-07
1.20998e-08
-8.62247e-07
3.35009e-09
-8.65644e-07
3.39553e-09
-8.78293e-07
1.26487e-08
-8.83353e-07
5.05943e-09
-8.97971e-07
1.46171e-08
-9.23744e-07
2.57726e-08
-9.68605e-07
4.48601e-08
-1.01259e-06
4.39827e-08
-1.03556e-06
2.29737e-08
-1.05645e-06
2.08852e-08
-1.07078e-06
1.43263e-08
-1.08217e-06
1.13868e-08
-1.0927e-06
1.05315e-08
-1.09995e-06
7.24726e-09
-1.10624e-06
6.28557e-09
-1.10718e-06
9.34857e-10
-1.10624e-06
-9.34873e-10
-1.1094e-06
3.15823e-09
-1.10871e-06
-6.93522e-10
-1.10981e-06
1.10078e-09
-1.11284e-06
3.02814e-09
-1.07973e-06
-3.31092e-08
-1.04807e-06
-3.16572e-08
-1.05613e-06
8.05763e-09
-1.03446e-06
-2.16719e-08
-1.10673e-06
7.22713e-08
-1.21414e-06
1.07409e-07
-1.52248e-06
3.08347e-07
-1.83525e-06
3.12771e-07
-2.04579e-06
2.10549e-07
-2.1977e-06
1.51926e-07
-2.3058e-06
1.08106e-07
-2.38737e-06
8.15709e-08
-2.45108e-06
6.37135e-08
-2.50269e-06
5.16185e-08
-2.54569e-06
4.3005e-08
-2.5823e-06
3.6615e-08
-2.61404e-06
3.17375e-08
-2.64194e-06
2.78985e-08
-2.66664e-06
2.47075e-08
-2.68863e-06
2.19881e-08
-2.70832e-06
1.96957e-08
-2.72612e-06
1.77974e-08
-2.7423e-06
1.61833e-08
-2.75702e-06
1.47188e-08
-2.77035e-06
1.33323e-08
-2.78236e-06
1.20078e-08
-2.79316e-06
1.07948e-08
-2.80287e-06
9.71123e-09
-2.81164e-06
8.77534e-09
-2.81955e-06
7.90971e-09
-2.82667e-06
7.11649e-09
-2.83303e-06
6.36022e-09
-2.83856e-06
5.52657e-09
-2.84333e-06
4.77114e-09
-2.84741e-06
4.07951e-09
-2.85074e-06
3.32701e-09
-2.85331e-06
2.57245e-09
-2.85512e-06
1.80488e-09
-2.85613e-06
1.00778e-09
-2.85634e-06
2.14341e-10
-2.8558e-06
-5.43261e-10
-2.85457e-06
-1.23228e-09
-2.85273e-06
-1.83421e-09
-2.8504e-06
-2.33914e-09
-2.84778e-06
-2.61975e-09
-2.84471e-06
-3.06671e-09
-2.84131e-06
-3.40511e-09
-2.83766e-06
-3.64468e-09
-2.83384e-06
-3.8272e-09
-2.82988e-06
-3.95367e-09
-2.82585e-06
-4.03927e-09
-2.82172e-06
-4.12308e-09
-2.81747e-06
-4.25116e-09
-2.81302e-06
-4.45582e-09
-2.80828e-06
-4.74214e-09
-2.80318e-06
-5.0963e-09
-2.79768e-06
-5.49953e-09
-2.79176e-06
-5.92835e-09
-2.78543e-06
-6.33113e-09
-2.77881e-06
-6.61516e-09
-2.77212e-06
-6.6917e-09
-2.76555e-06
-6.57762e-09
-2.75908e-06
-6.46688e-09
-2.7525e-06
-6.58054e-09
-2.74548e-06
-7.02473e-09
-2.73791e-06
-7.56896e-09
-2.73021e-06
-7.70138e-09
-2.72291e-06
-7.3039e-09
-2.71612e-06
-6.78752e-09
-2.70966e-06
-6.46005e-09
-2.70267e-06
-6.99177e-09
-2.69495e-06
-7.72439e-09
-2.68714e-06
-7.8141e-09
-2.67984e-06
-7.29459e-09
-2.67294e-06
-6.90674e-09
-2.66536e-06
-7.57911e-09
-2.6568e-06
-8.5626e-09
-2.6481e-06
-8.70118e-09
-2.63983e-06
-8.27078e-09
-2.63139e-06
-8.43484e-09
-2.62201e-06
-9.38562e-09
-2.61256e-06
-9.45385e-09
-2.604e-06
-8.55761e-09
-2.59601e-06
-7.99365e-09
-2.58793e-06
-8.07973e-09
-2.58025e-06
-7.67332e-09
-2.57338e-06
-6.87328e-09
-2.2105e-09
3.38212e-06
-5.49347e-05
-1.2871e-06
6.87245e-06
-7.0787e-06
9.03768e-06
-1.21997e-05
8.90728e-06
-1.68053e-05
8.40033e-06
-2.09389e-05
7.85968e-06
-2.46725e-05
7.28485e-06
-2.80488e-05
6.74349e-06
-3.11504e-05
6.30497e-06
-3.40286e-05
5.88707e-06
-3.67309e-05
5.50503e-06
-3.92974e-05
5.13197e-06
-4.17596e-05
4.8401e-06
-4.41283e-05
4.62116e-06
-4.64255e-05
4.58191e-06
-4.86444e-05
4.63262e-06
-5.07989e-05
4.64917e-06
-5.28612e-05
4.40444e-06
-5.48684e-05
4.01032e-06
-5.68663e-05
3.74819e-06
-5.88725e-05
3.71021e-06
-6.08473e-05
3.81018e-06
-6.27406e-05
3.85127e-06
-6.45228e-05
3.79521e-06
-6.62511e-05
3.77158e-06
-6.80682e-05
3.88033e-06
-7.00227e-05
3.95824e-06
-7.2032e-05
3.74624e-06
-7.39197e-05
3.42588e-06
-7.55234e-05
3.1251e-06
-7.69137e-05
3.13115e-06
-7.83013e-05
3.20249e-06
-7.98212e-05
3.13902e-06
-8.13752e-05
2.85741e-06
-8.28537e-05
2.64063e-06
-8.4199e-05
2.62231e-06
-8.54976e-05
2.89231e-06
-8.68665e-05
3.15594e-06
-8.8255e-05
3.08855e-06
-8.95732e-05
2.59885e-06
-9.07544e-05
2.04397e-06
-9.17612e-05
1.83744e-06
-9.27607e-05
1.97983e-06
-9.38947e-05
2.29866e-06
-9.50633e-05
2.48443e-06
-9.62476e-05
2.39425e-06
-9.73655e-05
2.07779e-06
-9.82811e-05
1.64644e-06
-9.90464e-05
1.38395e-06
-9.97968e-05
1.35673e-06
-0.000100539
1.43858e-06
-0.000101189
1.30154e-06
-0.000101698
9.5238e-07
-0.000102108
6.8705e-07
-0.000102526
7.33759e-07
-0.000102977
9.41567e-07
-0.000103364
1.03963e-06
-0.000103667
9.0777e-07
-0.000103738
4.09314e-07
-0.000103806
6.01623e-08
-0.000103953
3.23905e-08
-0.000104138
1.21237e-07
-0.00010426
1.00344e-07
-0.00010416
-2.93243e-07
-0.000103694
-1.20767e-06
-0.000102973
-2.11438e-06
-0.000102193
-2.60527e-06
-0.000101374
-2.94766e-06
-0.000100486
-3.36433e-06
-9.95233e-05
-4.0042e-06
-9.83954e-05
-5.03799e-06
-9.6951e-05
-6.36327e-06
-9.51077e-05
-7.8437e-06
-9.27532e-05
-9.04959e-06
-8.94238e-05
-9.89954e-06
-8.45311e-05
-1.0878e-05
-7.80679e-05
-1.23723e-05
-7.24502e-05
-1.23602e-05
-6.71937e-05
-1.07404e-05
-6.20899e-05
-8.32372e-06
-5.37914e-05
-8.46452e-06
-4.53308e-05
-7.02115e-06
-4.04348e-05
-4.28406e-06
-3.85425e-05
-1.16848e-06
-3.82686e-05
6.35645e-07
-3.83203e-05
-2.22204e-07
-3.87724e-05
-3.96095e-08
-3.94138e-05
4.11529e-07
-4.00633e-05
6.53035e-07
-3.96737e-05
-6.39208e-07
-3.90771e-05
-8.69752e-07
-3.8754e-05
-9.40335e-07
-3.84353e-05
-1.43244e-06
-3.82181e-05
-1.66495e-06
-3.79092e-05
-2.50622e-06
-3.74276e-05
-3.50167e-06
-3.70254e-05
-4.3291e-06
-3.60239e-05
-5.16687e-06
-3.41543e-05
-5.85128e-06
-3.08055e-05
-5.45847e-06
-2.64588e-05
-4.75317e-06
-2.19094e-05
-4.21358e-06
-1.90401e-05
-2.20363e-06
-1.78458e-05
-6.34125e-07
-1.72601e-05
2.10144e-07
-1.73385e-05
5.08727e-07
-1.76357e-05
3.92675e-07
-1.81655e-05
6.42834e-07
-1.8913e-05
9.88246e-07
-1.92984e-05
6.33242e-07
-1.93197e-05
2.0853e-07
-1.93937e-05
2.28984e-07
-1.9498e-05
7.37811e-08
-1.96267e-05
-1.65962e-07
-1.98509e-05
-4.46397e-07
-2.00306e-05
-8.70206e-07
-2.02517e-05
-1.26157e-06
-1.99285e-05
-1.26159e-06
-1.88923e-05
-1.13875e-06
-1.73626e-05
-1.30793e-06
-1.62407e-05
-7.60624e-07
-1.59669e-05
1.54943e-08
-1.59533e-05
4.62786e-07
-1.61448e-05
5.74677e-07
-1.64183e-05
5.00126e-07
-1.6866e-05
7.00834e-07
-1.72125e-05
5.82605e-07
-1.73894e-05
4.03548e-07
-1.7578e-05
4.33867e-07
-1.77633e-05
3.97033e-07
-1.79507e-05
3.66444e-07
-1.8152e-05
3.77581e-07
-1.83231e-05
3.31279e-07
-1.84617e-05
2.87929e-07
-1.85953e-05
2.76252e-07
-1.8726e-05
2.67214e-07
-1.88544e-05
2.56687e-07
-1.89728e-05
2.34363e-07
-1.90859e-05
2.20455e-07
-1.91857e-05
1.96818e-07
-1.92714e-05
1.71714e-07
-1.9343e-05
1.45503e-07
-1.93987e-05
1.10569e-07
-1.94435e-05
8.62982e-08
-1.94763e-05
6.44732e-08
-1.94926e-05
3.43851e-08
-1.94902e-05
1.76833e-10
-1.94736e-05
-3.36009e-08
-1.94449e-05
-6.11392e-08
-1.94034e-05
-8.55639e-08
-1.93465e-05
-1.11948e-07
-1.92711e-05
-1.44821e-07
-1.91777e-05
-1.82635e-07
-1.90694e-05
-2.16999e-07
-1.89488e-05
-2.44017e-07
-1.88154e-05
-2.68482e-07
-1.8666e-05
-2.95621e-07
-1.84969e-05
-3.32396e-07
-1.83109e-05
-3.7004e-07
-1.811e-05
-4.01871e-07
-1.78961e-05
-4.26936e-07
-1.76679e-05
-4.5177e-07
-1.74233e-05
-4.87784e-07
-1.71601e-05
-5.2692e-07
-1.68805e-05
-5.59038e-07
-1.65877e-05
-5.82957e-07
-1.62789e-05
-6.13212e-07
-1.59505e-05
-6.56535e-07
-1.56025e-05
-6.96323e-07
-1.52407e-05
-7.23581e-07
-1.48648e-05
-7.48694e-07
-1.44702e-05
-7.84787e-07
-1.40543e-05
-8.32006e-07
-1.36202e-05
-8.70646e-07
-1.31726e-05
-8.9709e-07
-1.27081e-05
-9.26043e-07
-1.22245e-05
-9.62577e-07
-1.17242e-05
-1.00034e-06
-1.12088e-05
-1.03525e-06
-1.06791e-05
-1.06549e-06
-1.01334e-05
-1.09177e-06
-9.56876e-06
-1.12394e-06
-8.99168e-06
-1.15275e-06
-8.40462e-06
-1.17936e-06
-7.81097e-06
-1.19526e-06
-7.20956e-06
-1.20293e-06
-6.59991e-06
-1.21936e-06
-5.98139e-06
-1.24468e-06
-5.35639e-06
-1.25854e-06
-4.72924e-06
-1.25652e-06
-4.10236e-06
-1.25352e-06
-3.47841e-06
-1.24834e-06
-2.8642e-06
-1.23439e-06
-2.25918e-06
-1.22039e-06
-1.66184e-06
-1.20146e-06
-1.07047e-06
-1.18512e-06
-4.87536e-07
-1.16508e-06
8.18665e-08
-1.13422e-06
6.32567e-07
-1.097e-06
1.16535e-06
-1.06351e-06
1.68572e-06
-1.03928e-06
2.19474e-06
-1.01751e-06
2.68881e-06
-9.87189e-07
3.16499e-06
-9.49665e-07
3.62661e-06
-9.18126e-07
4.07572e-06
-8.92299e-07
4.5121e-06
-8.68558e-07
4.93469e-06
-8.44708e-07
5.3421e-06
-8.15539e-07
5.73508e-06
-7.84505e-07
6.11534e-06
-7.57261e-07
6.48391e-06
-7.34511e-07
6.83873e-06
-7.09456e-07
7.17848e-06
-6.79013e-07
7.50468e-06
-6.49446e-07
7.81838e-06
-6.25135e-07
8.11993e-06
-6.01386e-07
8.40894e-06
-5.78062e-07
8.68516e-06
-5.53356e-07
8.94759e-06
-5.23111e-07
9.19517e-06
-4.91978e-07
9.4295e-06
-4.66725e-07
9.6525e-06
-4.44983e-07
9.86361e-06
-4.22975e-07
1.00619e-05
-3.9794e-07
1.02472e-05
-3.69349e-07
1.04195e-05
-3.42408e-07
1.05794e-05
-3.18828e-07
1.07273e-05
-2.95278e-07
1.08631e-05
-2.71653e-07
1.09876e-05
-2.50481e-07
1.11007e-05
-2.26329e-07
1.12016e-05
-2.0055e-07
1.12909e-05
-1.78282e-07
1.13693e-05
-1.57341e-07
1.14377e-05
-1.37442e-07
1.14964e-05
-1.17981e-07
1.15448e-05
-9.67863e-08
1.15827e-05
-7.55421e-08
1.16099e-05
-5.54176e-08
1.16277e-05
-3.76809e-08
1.16372e-05
-2.00207e-08
1.16386e-05
-2.75172e-09
1.16323e-05
1.31149e-08
1.16174e-05
2.93478e-08
1.15955e-05
4.2325e-08
1.15666e-05
5.70218e-08
1.15301e-05
7.3363e-08
1.14863e-05
8.70689e-08
1.14374e-05
9.68022e-08
1.13834e-05
1.06867e-07
1.13238e-05
1.19109e-07
1.12582e-05
1.30749e-07
1.1188e-05
1.39064e-07
1.11142e-05
1.47476e-07
1.10367e-05
1.5539e-07
1.09553e-05
1.63028e-07
1.087e-05
1.69869e-07
1.07807e-05
1.76768e-07
1.06882e-05
1.837e-07
1.05945e-05
1.87863e-07
1.04991e-05
1.91187e-07
1.04015e-05
1.9456e-07
1.03016e-05
1.98708e-07
1.01995e-05
2.0352e-07
1.00956e-05
2.07597e-07
9.99032e-06
2.10771e-07
9.88455e-06
2.11789e-07
9.77859e-06
2.11361e-07
9.6719e-06
2.12424e-07
9.56422e-06
2.14326e-07
9.45568e-06
2.16791e-07
9.3466e-06
2.18738e-07
9.23735e-06
2.18922e-07
9.12789e-06
2.18628e-07
9.01815e-06
2.18501e-07
8.90857e-06
2.18481e-07
8.7994e-06
2.18593e-07
8.6903e-06
2.18536e-07
8.5815e-06
2.17189e-07
8.47272e-06
2.17346e-07
8.36322e-06
2.19325e-07
8.25419e-06
2.1842e-07
8.14617e-06
2.16337e-07
8.03865e-06
2.1468e-07
7.93121e-06
2.14271e-07
7.82404e-06
2.13896e-07
7.71688e-06
2.14487e-07
7.61014e-06
2.13936e-07
7.504e-06
2.12886e-07
7.39825e-06
2.11436e-07
7.29298e-06
2.09711e-07
7.18796e-06
2.09358e-07
7.08296e-06
2.10052e-07
6.97865e-06
2.09136e-07
6.87487e-06
2.08082e-07
6.77109e-06
2.07524e-07
6.66742e-06
2.06688e-07
6.56436e-06
2.05815e-07
6.46181e-06
2.05379e-07
6.35961e-06
2.04886e-07
6.25773e-06
2.04186e-07
6.15608e-06
2.02931e-07
6.05467e-06
2.0253e-07
5.95393e-06
2.01896e-07
5.85372e-06
2.01081e-07
5.75376e-06
1.99982e-07
5.65443e-06
1.98125e-07
5.55515e-06
1.98373e-07
5.45646e-06
1.97703e-07
5.35839e-06
1.96654e-07
5.26084e-06
1.95164e-07
5.16367e-06
1.93907e-07
5.06727e-06
1.92729e-07
4.97153e-06
1.91709e-07
4.87642e-06
1.90556e-07
4.78193e-06
1.88845e-07
4.68801e-06
1.87414e-07
4.5949e-06
1.86248e-07
4.50267e-06
1.84836e-07
4.41125e-06
1.83264e-07
4.32066e-06
1.8106e-07
4.23081e-06
1.79159e-07
4.14153e-06
1.78478e-07
4.0535e-06
1.76541e-07
3.96654e-06
1.74157e-07
3.8805e-06
1.71624e-07
3.79536e-06
1.70111e-07
3.71109e-06
1.68717e-07
3.62786e-06
1.66686e-07
3.5458e-06
1.64517e-07
3.46481e-06
1.62135e-07
3.38487e-06
1.59774e-07
3.30606e-06
1.57505e-07
3.22841e-06
1.55244e-07
3.15187e-06
1.53105e-07
3.07639e-06
1.51063e-07
3.00201e-06
1.48864e-07
2.92873e-06
1.46417e-07
2.85655e-06
1.43958e-07
2.78553e-06
1.42042e-07
2.71554e-06
1.40214e-07
2.64652e-06
1.382e-07
2.57868e-06
1.35907e-07
2.51199e-06
1.33396e-07
2.44635e-06
1.31051e-07
2.38168e-06
1.29276e-07
2.31807e-06
1.27386e-07
2.25551e-06
1.25415e-07
2.19396e-06
1.22981e-07
2.13336e-06
1.20848e-07
2.07366e-06
1.19391e-07
2.015e-06
1.17508e-07
1.95728e-06
1.1559e-07
1.90046e-06
1.13523e-07
1.84458e-06
1.11621e-07
1.7896e-06
1.10136e-07
1.73558e-06
1.08329e-07
1.68231e-06
1.06527e-07
1.62972e-06
1.04845e-07
1.57795e-06
1.03345e-07
1.52724e-06
1.01588e-07
1.47738e-06
9.99368e-08
1.42817e-06
9.84953e-08
1.37979e-06
9.66878e-08
1.33207e-06
9.52646e-08
1.28507e-06
9.39931e-08
1.23894e-06
9.24354e-08
1.19352e-06
9.1045e-08
1.14879e-06
8.95752e-08
1.10483e-06
8.78931e-08
1.06159e-06
8.64454e-08
1.01906e-06
8.51074e-08
9.77129e-07
8.38403e-08
9.35875e-07
8.23749e-08
8.95266e-07
8.10466e-08
8.55332e-07
7.98522e-08
8.16148e-07
7.85261e-08
7.77555e-07
7.73542e-08
7.39524e-07
7.61117e-08
7.02114e-07
7.46924e-08
6.65335e-07
7.34012e-08
6.29159e-07
7.22722e-08
5.93516e-07
7.12469e-08
5.58383e-07
7.02428e-08
5.23959e-07
6.89342e-08
4.90116e-07
6.77677e-08
4.56823e-07
6.65748e-08
4.24113e-07
6.53931e-08
3.91993e-07
6.43964e-08
3.60436e-07
6.32536e-08
3.29446e-07
6.18921e-08
2.98943e-07
6.07657e-08
2.68986e-07
5.99503e-08
2.39654e-07
5.86851e-08
2.1094e-07
5.74204e-08
1.82732e-07
5.64932e-08
1.55149e-07
5.53567e-08
1.27994e-07
5.43045e-08
1.01521e-07
5.29736e-08
7.54876e-08
5.19639e-08
5.0148e-08
5.06753e-08
2.51791e-08
4.98729e-08
9.03311e-10
4.87068e-08
-2.30745e-08
4.80382e-08
-4.62442e-08
4.66647e-08
-6.92467e-08
4.62083e-08
-9.14661e-08
4.46904e-08
-1.13548e-07
4.42968e-08
-1.35696e-07
4.38943e-08
-1.57221e-07
4.28498e-08
-1.78775e-07
4.23169e-08
-1.98706e-07
3.99806e-08
-2.18505e-07
3.97214e-08
-2.36114e-07
3.66861e-08
-2.53813e-07
3.59401e-08
-2.73661e-07
3.76734e-08
-2.92754e-07
3.52183e-08
-3.10726e-07
3.34648e-08
-3.27091e-07
3.39685e-08
-3.31315e-07
1.98576e-08
-3.37359e-07
2.11621e-08
-3.61178e-07
3.948e-08
-3.84243e-07
2.69703e-08
-4.23628e-07
4.41182e-08
-4.70452e-07
6.74408e-08
-5.52789e-07
9.13573e-08
-6.2798e-07
1.01233e-07
-6.67126e-07
8.30927e-08
-6.90535e-07
1.01406e-07
-7.00277e-07
8.71539e-08
-7.2183e-07
6.4461e-08
-7.38874e-07
5.67349e-08
-7.60377e-07
4.86142e-08
-7.78883e-07
4.25202e-08
-7.98474e-07
3.91534e-08
-8.14837e-07
3.52898e-08
-8.29844e-07
3.15049e-08
-8.35837e-07
2.11086e-08
-8.42327e-07
1.86671e-08
-8.59372e-07
2.91431e-08
-8.75722e-07
1.96997e-08
-9.00845e-07
2.85176e-08
-9.30203e-07
4.20064e-08
-9.79529e-07
5.43848e-08
-1.02445e-06
5.95388e-08
-1.04556e-06
4.68773e-08
-1.05747e-06
5.67693e-08
-1.06053e-06
4.7045e-08
-1.0726e-06
3.50362e-08
-1.07857e-06
2.68582e-08
-1.08817e-06
2.39182e-08
-1.08892e-06
1.2134e-08
-1.09393e-06
1.55434e-08
-1.09929e-06
1.26007e-08
-1.10874e-06
1.57327e-08
-1.11779e-06
9.98574e-09
-1.12761e-06
8.88324e-09
-1.13371e-06
9.25056e-09
-1.10058e-06
-3.38192e-08
-1.06892e-06
-3.05676e-08
-1.0801e-06
1.42156e-08
-1.09466e-06
-1.8548e-08
-1.19935e-06
7.30342e-08
-1.32655e-06
1.35253e-07
-1.66241e-06
3.14193e-07
-1.97947e-06
3.8933e-07
-2.19726e-06
3.2519e-07
-2.30659e-06
4.17678e-07
-2.30998e-06
3.1615e-07
-2.33602e-06
2.36583e-07
-2.37554e-06
1.91436e-07
-2.42062e-06
1.53177e-07
-2.46531e-06
1.2626e-07
-2.50769e-06
1.06088e-07
-2.54678e-06
9.06924e-08
-2.58206e-06
7.82838e-08
-2.61366e-06
6.82052e-08
-2.64197e-06
6.00397e-08
-2.66737e-06
5.32958e-08
-2.69017e-06
4.7503e-08
-2.71068e-06
4.24865e-08
-2.72918e-06
3.81952e-08
-2.7459e-06
3.45091e-08
-2.76096e-06
3.12421e-08
-2.7745e-06
2.82472e-08
-2.78657e-06
2.53961e-08
-2.79744e-06
2.28801e-08
-2.80722e-06
2.05633e-08
-2.81602e-06
1.85072e-08
-2.82394e-06
1.66911e-08
-2.83108e-06
1.5049e-08
-2.83748e-06
1.35107e-08
-2.84312e-06
1.19985e-08
-2.84813e-06
1.05339e-08
-2.85245e-06
9.08457e-09
-2.85593e-06
7.56564e-09
-2.85875e-06
6.1364e-09
-2.86089e-06
4.71603e-09
-2.86239e-06
3.30154e-09
-2.86326e-06
1.87501e-09
-2.86352e-06
4.74067e-10
-2.86322e-06
-8.50482e-10
-2.86238e-06
-2.06647e-09
-2.86104e-06
-3.18496e-09
-2.85918e-06
-4.19185e-09
-2.8566e-06
-5.20393e-09
-2.85379e-06
-5.87741e-09
-2.8507e-06
-6.49944e-09
-2.84729e-06
-7.05972e-09
-2.84362e-06
-7.49945e-09
-2.83975e-06
-7.82571e-09
-2.83569e-06
-8.09462e-09
-2.83143e-06
-8.38476e-09
-2.82692e-06
-8.76152e-09
-2.82213e-06
-9.24617e-09
-2.81706e-06
-9.81939e-09
-2.8117e-06
-1.04562e-08
-2.80605e-06
-1.11514e-08
-2.80008e-06
-1.1898e-08
-2.79379e-06
-1.26233e-08
-2.78723e-06
-1.31724e-08
-2.78055e-06
-1.33793e-08
-2.77385e-06
-1.32793e-08
-2.76712e-06
-1.31916e-08
-2.76021e-06
-1.34958e-08
-2.75302e-06
-1.42161e-08
-2.74572e-06
-1.48725e-08
-2.73848e-06
-1.49374e-08
-2.73151e-06
-1.42819e-08
-2.72481e-06
-1.34888e-08
-2.71744e-06
-1.38234e-08
-2.70956e-06
-1.4872e-08
-2.70169e-06
-1.55998e-08
-2.69423e-06
-1.52792e-08
-2.68706e-06
-1.44616e-08
-2.6793e-06
-1.46627e-08
-2.67081e-06
-1.60758e-08
-2.66242e-06
-1.69513e-08
-2.6545e-06
-1.66254e-08
-2.64653e-06
-1.62404e-08
-2.6378e-06
-1.71645e-08
-2.62926e-06
-1.79229e-08
-2.6212e-06
-1.75208e-08
-2.61341e-06
-1.63424e-08
-2.60538e-06
-1.60299e-08
-2.59714e-06
-1.63145e-08
-2.58811e-06
-1.6705e-08
-2.57877e-06
-1.6212e-08
-9.81579e-09
1.65536e-05
-9.88672e-05
3.75456e-06
1.96715e-05
-6.33064e-06
1.91227e-05
-1.33302e-05
1.59068e-05
-1.86259e-05
1.36964e-05
-2.2889e-05
1.21226e-05
-2.65213e-05
1.0917e-05
-2.97451e-05
9.96711e-06
-3.26818e-05
9.24121e-06
-3.54202e-05
8.62479e-06
-3.8027e-05
8.1113e-06
-4.05415e-05
7.64587e-06
-4.29786e-05
7.27641e-06
-4.53341e-05
6.97542e-06
-4.75783e-05
6.82487e-06
-4.96681e-05
6.72109e-06
-5.16311e-05
6.61091e-06
-5.35705e-05
6.34238e-06
-5.5584e-05
6.02249e-06
-5.76773e-05
5.84002e-06
-5.97485e-05
5.7801e-06
-6.17003e-05
5.76078e-06
-6.34835e-05
5.63324e-06
-6.51343e-05
5.44486e-06
-6.67358e-05
5.37203e-06
-6.84143e-05
5.558e-06
-7.02347e-05
5.77793e-06
-7.22299e-05
5.74081e-06
-7.41369e-05
5.33226e-06
-7.57837e-05
4.77149e-06
-7.71346e-05
4.48157e-06
-7.84001e-05
4.46754e-06
-7.98299e-05
4.56844e-06
-8.14586e-05
4.48572e-06
-8.30496e-05
4.23124e-06
-8.44704e-05
4.04284e-06
-8.56684e-05
4.09005e-06
-8.67346e-05
4.22197e-06
-8.78954e-05
4.24934e-06
-8.9202e-05
3.90538e-06
-9.05796e-05
3.42167e-06
-9.19129e-05
3.17084e-06
-9.31336e-05
3.2007e-06
-9.42338e-05
3.39894e-06
-9.52636e-05
3.51454e-06
-9.62847e-05
3.41567e-06
-9.73777e-05
3.17117e-06
-9.85112e-05
2.78034e-06
-9.95561e-05
2.42932e-06
-0.000100413
2.21432e-06
-0.000101106
2.13158e-06
-0.000101734
1.92969e-06
-0.000102318
1.53721e-06
-0.000102855
1.22376e-06
-0.000103314
1.19362e-06
-0.000103646
1.27386e-06
-0.000103825
1.21914e-06
-0.000103877
9.59202e-07
-0.000103918
4.50715e-07
-0.000104126
2.69013e-07
-0.000104375
2.81628e-07
-0.000104567
3.13313e-07
-0.000104618
1.51142e-07
-0.000104372
-5.38102e-07
-0.000104022
-1.55763e-06
-0.000103819
-2.31766e-06
-0.000103647
-2.77692e-06
-0.000103277
-3.31779e-06
-0.000102682
-3.95906e-06
-0.000102069
-4.61743e-06
-0.000101705
-5.40122e-06
-0.00010155
-6.51844e-06
-0.0001015
-7.89348e-06
-0.000101327
-9.2228e-06
-0.000100677
-1.05503e-05
-9.96254e-05