/*--------------------------------*- C++ -*----------------------------------*\
| =========                 |                                                 |
| \\      /  F ield         | OpenFOAM: The Open Source CFD Toolbox           |
|  \\    /   O peration     | Version:  v2006                                 |
|   \\  /    A nd           | Website:  www.openfoam.com                      |
|    \\/     M anipulation  |                                                 |
\*---------------------------------------------------------------------------*/
FoamFile
{
    version     2.0;
    format      ascii;
    class       volVectorField;
    location    "4";
    object      U;
}
// * * * * * * * * * * * * * * * * * * * * * * * * * * * * * * * * * * * * * //

dimensions      [0 1 -1 0 0 0 0];


internalField   nonuniform List<vector> 
33000
(
(-0.040019 0 -0.0425093)
(0.00786189 0 0.00405599)
(-0.0217066 0 0.00641279)
(-0.0257504 0 0.00760481)
(-0.0363027 0 0.00746868)
(-0.045186 0 0.00734006)
(-0.0543822 0 0.00702575)
(-0.0629595 0 0.00682127)
(-0.0712261 0 0.00656488)
(-0.0790627 0 0.00619326)
(-0.0863164 0 0.00573178)
(-0.0930403 0 0.00515617)
(-0.0991662 0 0.00469257)
(-0.104898 0 0.00443631)
(-0.110412 0 0.00462206)
(-0.116333 0 0.00505896)
(-0.122548 0 0.00530428)
(-0.1289 0 0.00493914)
(-0.134233 0 0.00399055)
(-0.138816 0 0.00331772)
(-0.142901 0 0.00320816)
(-0.147366 0 0.00364708)
(-0.152144 0 0.00402527)
(-0.157216 0 0.00428764)
(-0.162167 0 0.00436749)
(-0.167333 0 0.00435156)
(-0.172632 0 0.00403654)
(-0.177305 0 0.0033032)
(-0.181255 0 0.00277243)
(-0.184857 0 0.0029883)
(-0.188922 0 0.00387581)
(-0.193612 0 0.00404707)
(-0.19812 0 0.00338218)
(-0.201739 0 0.00241841)
(-0.204536 0 0.00198015)
(-0.207441 0 0.00245946)
(-0.210889 0 0.00350125)
(-0.215499 0 0.00389318)
(-0.220062 0 0.00365097)
(-0.223795 0 0.00249766)
(-0.226345 0 0.00141292)
(-0.228167 0 0.00157999)
(-0.230426 0 0.00203424)
(-0.233204 0 0.00238193)
(-0.236409 0 0.00268781)
(-0.239668 0 0.00234616)
(-0.242406 0 0.00178222)
(-0.24437 0 0.00136631)
(-0.246003 0 0.00116389)
(-0.247419 0 0.00112153)
(-0.249206 0 0.00139214)
(-0.25102 0 0.00137185)
(-0.252416 0 0.000977915)
(-0.253085 0 0.000530059)
(-0.253781 0 0.000603135)
(-0.254792 0 0.000983777)
(-0.256252 0 0.00153919)
(-0.258039 0 0.00149045)
(-0.25921 0 0.000954011)
(-0.259561 0 6.09857e-05)
(-0.259401 0 -0.000519307)
(-0.259056 0 -0.000467513)
(-0.259061 0 -0.000234942)
(-0.259003 0 -0.000560368)
(-0.257907 0 -0.00177452)
(-0.255119 0 -0.00340334)
(-0.251128 0 -0.00474925)
(-0.246142 0 -0.00586838)
(-0.240446 0 -0.00718573)
(-0.233646 0 -0.00922832)
(-0.22467 0 -0.0121962)
(-0.213606 0 -0.0155043)
(-0.200582 0 -0.0184837)
(-0.185648 0 -0.0193242)
(-0.168425 0 -0.0163947)
(-0.14693 0 -0.0112579)
(-0.127871 0 -0.00876902)
(-0.120679 0 -0.010522)
(-0.108474 0 -6.35241e-05)
(-0.0898176 0 -0.000632862)
(-0.0906538 0 0.00588248)
(-0.0913765 0 0.00602246)
(-0.0961433 0 0.000198894)
(-0.09543 0 -0.00336486)
(-0.0995241 0 -0.00135344)
(-0.099806 0 0.000187317)
(-0.0982062 0 0.00158999)
(-0.0973337 0 0.00158142)
(-0.0972317 0 0.00165722)
(-0.0971398 0 -0.000382998)
(-0.0961395 0 -0.000985192)
(-0.0956882 0 -0.00175855)
(-0.0930982 0 -0.00266796)
(-0.0900337 0 -0.00402323)
(-0.0859999 0 -0.00644886)
(-0.0788117 0 -0.00960994)
(-0.0711963 0 -0.01271)
(-0.05881 0 -0.012846)
(-0.0510162 0 -0.00969224)
(-0.0387 0 -0.000175797)
(-0.0395928 0 0.00596075)
(-0.037731 0 0.00755363)
(-0.0407343 0 0.00330922)
(-0.0412407 0 -0.00139834)
(-0.0435156 0 -0.00145264)
(-0.045191 0 -0.000794771)
(-0.0456096 0 0.000777149)
(-0.045744 0 0.00136875)
(-0.0461825 0 0.00173498)
(-0.0469269 0 0.00110631)
(-0.0474188 0 0.000240647)
(-0.0478749 0 -9.81078e-05)
(-0.0482063 0 -0.00040466)
(-0.047625 0 -0.00096656)
(-0.0469169 0 -0.00221334)
(-0.0439183 0 -0.00332255)
(-0.0423671 0 -0.00505094)
(-0.0361347 0 -0.00196151)
(-0.037102 0 0.00166027)
(-0.0364095 0 0.00327085)
(-0.0378563 0 0.00243474)
(-0.0382784 0 0.000199032)
(-0.0393641 0 2.42671e-06)
(-0.040598 0 9.0534e-05)
(-0.0412443 0 0.000597916)
(-0.041804 0 0.000804554)
(-0.0424704 0 0.000701918)
(-0.0429988 0 0.000420874)
(-0.0436132 0 0.000393234)
(-0.0442077 0 0.000341486)
(-0.0446722 0 0.000377701)
(-0.0451147 0 0.000385022)
(-0.0455426 0 0.000352342)
(-0.0459217 0 0.000294777)
(-0.0462871 0 0.000261509)
(-0.0466353 0 0.000231151)
(-0.0469692 0 0.000226826)
(-0.0472737 0 0.000212977)
(-0.0475513 0 0.000203577)
(-0.0478088 0 0.000186054)
(-0.0480357 0 0.00016579)
(-0.04824 0 0.000143268)
(-0.0484008 0 0.000106067)
(-0.0485167 0 7.77822e-05)
(-0.0486088 0 6.02176e-05)
(-0.0486726 0 3.66425e-05)
(-0.0487008 0 9.38439e-06)
(-0.0486823 0 -3.30765e-05)
(-0.048618 0 -6.64478e-05)
(-0.0485206 0 -8.89795e-05)
(-0.0483975 0 -0.000107769)
(-0.0482458 0 -0.000132148)
(-0.0480485 0 -0.0001723)
(-0.0477994 0 -0.000214392)
(-0.0475062 0 -0.000243879)
(-0.0471815 0 -0.00026793)
(-0.0468306 0 -0.00028597)
(-0.0464483 0 -0.000316924)
(-0.0460118 0 -0.000361234)
(-0.0455278 0 -0.000395908)
(-0.045006 0 -0.000419095)
(-0.0444624 0 -0.000437287)
(-0.0438831 0 -0.000478347)
(-0.0432461 0 -0.000519392)
(-0.0425632 0 -0.000549753)
(-0.0418485 0 -0.000568977)
(-0.0411112 0 -0.000596324)
(-0.0403224 0 -0.000645535)
(-0.0394712 0 -0.000685231)
(-0.0385803 0 -0.000711818)
(-0.0376616 0 -0.000731532)
(-0.0367152 0 -0.000764449)
(-0.0357078 0 -0.000817748)
(-0.034636 0 -0.000860061)
(-0.033525 0 -0.000885791)
(-0.032388 0 -0.000905204)
(-0.0312163 0 -0.000937325)
(-0.0299916 0 -0.000983301)
(-0.0287158 0 -0.00102618)
(-0.0273912 0 -0.00105928)
(-0.0260373 0 -0.00107451)
(-0.0246589 0 -0.00109288)
(-0.02324 0 -0.00113021)
(-0.0217795 0 -0.00116878)
(-0.0202778 0 -0.00118889)
(-0.0187724 0 -0.00118263)
(-0.0172684 0 -0.00119853)
(-0.0157229 0 -0.00123693)
(-0.014138 0 -0.0012521)
(-0.012557 0 -0.00123782)
(-0.0109908 0 -0.00122947)
(-0.00942461 0 -0.00122642)
(-0.00787056 0 -0.00122505)
(-0.00632386 0 -0.00122037)
(-0.00479686 0 -0.00119515)
(-0.00330383 0 -0.0011701)
(-0.00183001 0 -0.00114339)
(-0.000393568 0 -0.0011065)
(0.000993219 0 -0.00107159)
(0.00233638 0 -0.00104313)
(0.00364472 0 -0.00101968)
(0.00492925 0 -0.000999018)
(0.00618474 0 -0.000968695)
(0.00739232 0 -0.000929239)
(0.00855065 0 -0.000892836)
(0.00967322 0 -0.000865739)
(0.0107648 0 -0.000846282)
(0.0118329 0 -0.000829548)
(0.0128732 0 -0.000802906)
(0.0138717 0 -0.000768678)
(0.0148295 0 -0.000738547)
(0.0157558 0 -0.000717346)
(0.0166581 0 -0.000697179)
(0.0175276 0 -0.000666564)
(0.0183529 0 -0.000632936)
(0.0191446 0 -0.000610432)
(0.019909 0 -0.000588528)
(0.0206438 0 -0.000568751)
(0.0213542 0 -0.000545751)
(0.0220287 0 -0.000510808)
(0.0226577 0 -0.000477948)
(0.023252 0 -0.000455946)
(0.02382 0 -0.000436283)
(0.0243626 0 -0.00041736)
(0.0248799 0 -0.000393556)
(0.0253608 0 -0.000360926)
(0.0258014 0 -0.000332784)
(0.0262124 0 -0.000311673)
(0.0265967 0 -0.000289342)
(0.0269495 0 -0.000267065)
(0.0272772 0 -0.00024863)
(0.0275788 0 -0.000222358)
(0.0278431 0 -0.000194665)
(0.0280778 0 -0.000174076)
(0.0282876 0 -0.00015514)
(0.0284717 0 -0.000136012)
(0.0286325 0 -0.000116694)
(0.0287672 0 -9.42402e-05)
(0.0288736 0 -7.29467e-05)
(0.0289545 0 -5.58659e-05)
(0.0290143 0 -4.05495e-05)
(0.0290527 0 -2.17507e-05)
(0.0290663 0 -2.75766e-06)
(0.0290596 0 1.40396e-05)
(0.0290318 0 2.82878e-05)
(0.028988 0 3.86627e-05)
(0.0289293 0 5.49064e-05)
(0.0288477 0 7.28931e-05)
(0.0287457 0 8.42589e-05)
(0.028632 0 9.27157e-05)
(0.0285071 0 0.000103343)
(0.0283677 0 0.000117042)
(0.0282104 0 0.000127792)
(0.0280429 0 0.000133767)
(0.0278659 0 0.000144852)
(0.0276757 0 0.000153913)
(0.0274764 0 0.000159982)
(0.0272684 0 0.000165644)
(0.0270541 0 0.000170811)
(0.0268309 0 0.000178476)
(0.0265988 0 0.000185953)
(0.0263607 0 0.000188707)
(0.0261201 0 0.000190329)
(0.0258762 0 0.000194034)
(0.0256256 0 0.000199208)
(0.0253691 0 0.000203862)
(0.0251075 0 0.000208462)
(0.0248416 0 0.000208985)
(0.0245776 0 0.000207065)
(0.0243141 0 0.000207664)
(0.024049 0 0.000209941)
(0.0237808 0 0.000213987)
(0.0235076 0 0.000216905)
(0.0232328 0 0.000216275)
(0.0229592 0 0.000214708)
(0.0226871 0 0.000214103)
(0.0224154 0 0.000214866)
(0.0221427 0 0.000216335)
(0.0218684 0 0.000216056)
(0.0215958 0 0.000213357)
(0.0213265 0 0.000214414)
(0.0210528 0 0.000217056)
(0.0207781 0 0.000215876)
(0.0205059 0 0.000213611)
(0.0202372 0 0.000210897)
(0.0199701 0 0.000210616)
(0.0197038 0 0.00021076)
(0.0194364 0 0.000211813)
(0.0191677 0 0.000211687)
(0.0189004 0 0.000211114)
(0.0186342 0 0.000208534)
(0.018372 0 0.000205553)
(0.018112 0 0.000205556)
(0.0178501 0 0.000207394)
(0.0175871 0 0.000207213)
(0.0173261 0 0.000206108)
(0.0170658 0 0.000204681)
(0.0168076 0 0.000202821)
(0.016551 0 0.000202471)
(0.016294 0 0.000203018)
(0.0160373 0 0.000202857)
(0.0157808 0 0.000202013)
(0.0155264 0 0.000199553)
(0.0152746 0 0.000199175)
(0.0150212 0 0.000199634)
(0.0147694 0 0.000199356)
(0.0145172 0 0.000197351)
(0.0142699 0 0.000194474)
(0.0140232 0 0.00019514)
(0.013775 0 0.000195452)
(0.0135283 0 0.000194774)
(0.0132825 0 0.000192491)
(0.0130404 0 0.000190408)
(0.012799 0 0.000189873)
(0.0125589 0 0.000189413)
(0.0123194 0 0.000188411)
(0.012082 0 0.000185949)
(0.0118477 0 0.000183951)
(0.0116146 0 0.000183613)
(0.0113821 0 0.000182905)
(0.0111517 0 0.000181354)
(0.010923 0 0.000178251)
(0.0106995 0 0.000175603)
(0.0104763 0 0.000175644)
(0.0102537 0 0.000174836)
(0.0100337 0 0.000172086)
(0.00981785 0 0.000168347)
(0.00960568 0 0.000167293)
(0.00939308 0 0.000166502)
(0.00918343 0 0.00016456)
(0.00897577 0 0.000162679)
(0.00877115 0 0.000159967)
(0.00856995 0 0.000157184)
(0.00837191 0 0.000154958)
(0.00817642 0 0.000152806)
(0.00798384 0 0.000150857)
(0.00779345 0 0.000148949)
(0.00760585 0 0.00014674)
(0.00742093 0 0.0001439)
(0.0072401 0 0.000141032)
(0.00706186 0 0.000139845)
(0.00688497 0 0.000138427)
(0.00671063 0 0.000136267)
(0.00653897 0 0.000134126)
(0.00637018 0 0.000131317)
(0.00620539 0 0.000128584)
(0.00604298 0 0.000127102)
(0.00588232 0 0.000125635)
(0.00572396 0 0.00012394)
(0.00556804 0 0.000120834)
(0.00541668 0 0.000118295)
(0.00526666 0 0.000117375)
(0.00511818 0 0.000115901)
(0.00497233 0 0.000113949)
(0.00482876 0 0.000111502)
(0.0046887 0 0.00010958)
(0.00454994 0 0.000108641)
(0.00441285 0 0.000107048)
(0.00427832 0 0.000104792)
(0.0041465 0 0.000102557)
(0.00401696 0 0.000101272)
(0.00388856 0 0.000100203)
(0.0037625 0 9.86542e-05)
(0.00363814 0 9.7036e-05)
(0.00351603 0 9.50512e-05)
(0.00339654 0 9.3441e-05)
(0.00327828 0 9.24082e-05)
(0.0031615 0 9.12463e-05)
(0.0030467 0 8.99384e-05)
(0.00293337 0 8.84007e-05)
(0.00282243 0 8.64653e-05)
(0.00271363 0 8.5024e-05)
(0.00260639 0 8.38281e-05)
(0.00250073 0 8.2516e-05)
(0.0023968 0 8.0876e-05)
(0.00229508 0 7.95322e-05)
(0.00219458 0 7.85399e-05)
(0.00209545 0 7.75633e-05)
(0.00199784 0 7.64238e-05)
(0.00190161 0 7.50056e-05)
(0.00180741 0 7.32848e-05)
(0.00171517 0 7.1921e-05)
(0.00162428 0 7.09566e-05)
(0.00153467 0 6.99126e-05)
(0.00144624 0 6.89099e-05)
(0.00135911 0 6.76833e-05)
(0.00127367 0 6.66662e-05)
(0.00118947 0 6.50446e-05)
(0.00110726 0 6.40854e-05)
(0.001026 0 6.30317e-05)
(0.000945895 0 6.2235e-05)
(0.000867478 0 5.99812e-05)
(0.00079139 0 5.90565e-05)
(0.000716105 0 5.80036e-05)
(0.000641436 0 5.74309e-05)
(0.000569306 0 5.528e-05)
(0.000497868 0 5.53481e-05)
(0.000427884 0 5.33861e-05)
(0.000358937 0 5.29405e-05)
(0.000292169 0 5.04599e-05)
(0.000226326 0 5.02538e-05)
(0.000162593 0 4.79618e-05)
(9.94859e-05 0 4.79851e-05)
(3.81907e-05 0 4.63519e-05)
(-2.28704e-05 0 4.58782e-05)
(-8.19567e-05 0 4.4858e-05)
(-0.000140569 0 4.3275e-05)
(-0.000197806 0 4.38976e-05)
(-0.000253146 0 4.11513e-05)
(-0.000308733 0 4.54303e-05)
(-0.000362029 0 4.02111e-05)
(-0.000415283 0 4.55579e-05)
(-0.000465908 0 3.71368e-05)
(-0.00051554 0 4.28501e-05)
(-0.000565522 0 3.37438e-05)
(-0.000610956 0 4.15426e-05)
(-0.000656723 0 3.56488e-05)
(-0.000700105 0 4.28853e-05)
(-0.00073731 0 2.89586e-05)
(-0.000777661 0 3.24161e-05)
(-0.000825307 0 1.27388e-05)
(-0.000855723 0 2.86668e-05)
(-0.00090124 0 4.17692e-05)
(-0.000933606 0 5.9709e-05)
(-0.000920982 0 3.53942e-05)
(-0.000957606 0 1.28515e-05)
(-0.00102382 0 -9.90538e-05)
(-0.00100223 0 -6.53283e-05)
(-0.00115613 0 7.88312e-05)
(-0.00121832 0 0.000195608)
(-0.00154852 0 0.000242092)
(-0.0016068 0 0.000107574)
(-0.00176012 0 0.000110796)
(-0.00180759 0 6.71659e-05)
(-0.00189396 0 6.15621e-05)
(-0.00192899 0 5.09123e-05)
(-0.00199094 0 3.18091e-05)
(-0.00202413 0 3.59274e-05)
(-0.00207337 0 1.03515e-05)
(-0.00209941 0 2.78668e-05)
(-0.00213494 0 1.94848e-05)
(-0.00215913 0 4.17639e-05)
(-0.00215219 0 9.0913e-06)
(-0.00217613 0 1.03078e-05)
(-0.00221544 0 -7.66795e-05)
(-0.00220071 0 -3.72435e-05)
(-0.00229061 0 3.40409e-05)
(-0.00232615 0 0.00011971)
(-0.00251659 0 0.000124976)
(-0.00254883 0 5.73704e-05)
(-0.00262683 0 4.6678e-05)
(-0.00265725 0 2.33542e-05)
(-0.00269488 0 1.73801e-05)
(-0.00271757 0 2.76003e-06)
(-0.00274444 0 2.54158e-05)
(-0.00275662 0 -2.44161e-06)
(-0.00277341 0 3.92905e-05)
(-0.00276346 0 -1.83361e-05)
(-0.00276678 0 2.92599e-05)
(-0.00278119 0 -6.79938e-05)
(-0.00276141 0 1.15835e-05)
(-0.00278857 0 -2.1217e-05)
(-0.00277505 0 9.66526e-05)
(-0.00262382 0 -5.17083e-06)
(-0.00261586 0 3.51836e-05)
(-0.00266636 0 -0.000406464)
(-0.00250335 0 -0.000255289)
(-0.0030331 0 -6.18532e-05)
(-0.00303766 0 0.000510304)
(-0.00456596 0 0.000951139)
(-0.0047645 0 0.000615137)
(-0.00538093 0 0.000413239)
(-0.00562816 0 0.000271947)
(-0.00587216 0 0.000192674)
(-0.00604914 0 0.000142612)
(-0.00619288 0 0.000110963)
(-0.00631075 0 9.00892e-05)
(-0.00641014 0 7.55271e-05)
(-0.0064955 0 6.47844e-05)
(-0.00657002 0 5.65337e-05)
(-0.00663578 0 4.98436e-05)
(-0.00669412 0 4.4249e-05)
(-0.0067462 0 3.95038e-05)
(-0.00679305 0 3.56041e-05)
(-0.00683554 0 3.23503e-05)
(-0.00687418 0 2.94516e-05)
(-0.00690925 0 2.67037e-05)
(-0.00694091 0 2.41423e-05)
(-0.0069694 0 2.17537e-05)
(-0.00699503 0 1.95868e-05)
(-0.00701813 0 1.76259e-05)
(-0.00703899 0 1.5884e-05)
(-0.00705778 0 1.43121e-05)
(-0.00707463 0 1.28104e-05)
(-0.00708949 0 1.09682e-05)
(-0.00710236 0 9.42259e-06)
(-0.00711344 0 8.26982e-06)
(-0.00712271 0 6.78682e-06)
(-0.00713009 0 5.24858e-06)
(-0.00713557 0 3.692e-06)
(-0.00713909 0 2.0547e-06)
(-0.00714065 0 3.92997e-07)
(-0.00714022 0 -1.19957e-06)
(-0.00713797 0 -2.63949e-06)
(-0.00713413 0 -3.84715e-06)
(-0.0071289 0 -4.83058e-06)
(-0.00712271 0 -5.27908e-06)
(-0.0071156 0 -6.2225e-06)
(-0.00710751 0 -6.85876e-06)
(-0.00709869 0 -7.27499e-06)
(-0.00708935 0 -7.60438e-06)
(-0.00707962 0 -7.83193e-06)
(-0.00706963 0 -7.96547e-06)
(-0.00705944 0 -8.07755e-06)
(-0.007049 0 -8.26614e-06)
(-0.00703813 0 -8.61752e-06)
(-0.00702664 0 -9.17216e-06)
(-0.00701435 0 -9.90935e-06)
(-0.00700112 0 -1.07766e-05)
(-0.00698683 0 -1.16992e-05)
(-0.00697148 0 -1.25525e-05)
(-0.00695527 0 -1.31346e-05)
(-0.00693862 0 -1.32577e-05)
(-0.00692204 0 -1.29487e-05)
(-0.00690579 0 -1.26096e-05)
(-0.00688954 0 -1.27191e-05)
(-0.00687254 0 -1.36534e-05)
(-0.00685423 0 -1.49647e-05)
(-0.00683501 0 -1.54033e-05)
(-0.0068162 0 -1.46661e-05)
(-0.00679868 0 -1.34783e-05)
(-0.0067823 0 -1.21536e-05)
(-0.00676557 0 -1.29702e-05)
(-0.00674705 0 -1.48945e-05)
(-0.00672745 0 -1.54734e-05)
(-0.00670859 0 -1.45391e-05)
(-0.00669105 0 -1.3196e-05)
(-0.00667315 0 -1.40915e-05)
(-0.00665282 0 -1.67232e-05)
(-0.00663098 0 -1.74653e-05)
(-0.00660989 0 -1.65554e-05)
(-0.00658924 0 -1.63021e-05)
(-0.00656691 0 -1.87264e-05)
(-0.00654315 0 -1.95797e-05)
(-0.00651814 0 -1.7543e-05)
(-0.00650945 0 -1.56461e-05)
(-0.00653196 0 -1.57874e-05)
(-0.00619171 0 -1.4172e-05)
(-0.00713451 0 -1.16097e-05)
(-0.00507534 0 -6.08727e-07)
(-0.0131444 0 -0.133915)
(0.0204264 0 0.015921)
(-0.0169199 0 0.0222484)
(-0.0232684 0 0.0240741)
(-0.0367514 0 0.023445)
(-0.0471378 0 0.0225531)
(-0.0571167 0 0.0211917)
(-0.0659462 0 0.0197638)
(-0.0740351 0 0.018605)
(-0.0815468 0 0.0173908)
(-0.088442 0 0.016203)
(-0.0950758 0 0.0149309)
(-0.101318 0 0.0139453)
(-0.107413 0 0.0132568)
(-0.113197 0 0.0133468)
(-0.118885 0 0.0138578)
(-0.124333 0 0.014183)
(-0.129629 0 0.0133052)
(-0.134631 0 0.0116356)
(-0.139646 0 0.0103875)
(-0.144607 0 0.0102076)
(-0.149738 0 0.010858)
(-0.154521 0 0.0114601)
(-0.159204 0 0.0115917)
(-0.163386 0 0.0116355)
(-0.167774 0 0.0117126)
(-0.172556 0 0.0115577)
(-0.177581 0 0.0103115)
(-0.182571 0 0.00937094)
(-0.186942 0 0.00902795)
(-0.190623 0 0.00979733)
(-0.194031 0 0.0101199)
(-0.197492 0 0.00928808)
(-0.20155 0 0.00784877)
(-0.205323 0 0.00715672)
(-0.208906 0 0.00759621)
(-0.212133 0 0.00903823)
(-0.215334 0 0.0101422)
(-0.219007 0 0.00958906)
(-0.222244 0 0.00742533)
(-0.225506 0 0.00531138)
(-0.228354 0 0.00491307)
(-0.230439 0 0.00571269)
(-0.233257 0 0.00682804)
(-0.236276 0 0.00758884)
(-0.23911 0 0.00713751)
(-0.242071 0 0.00579826)
(-0.244723 0 0.00437056)
(-0.246698 0 0.00369213)
(-0.248441 0 0.00370974)
(-0.250466 0 0.00411507)
(-0.252266 0 0.00375061)
(-0.253732 0 0.00252448)
(-0.254724 0 0.00167293)
(-0.255686 0 0.00191306)
(-0.25702 0 0.00289267)
(-0.257925 0 0.00356866)
(-0.258838 0 0.00319233)
(-0.259365 0 0.00160754)
(-0.25929 0 -0.000153665)
(-0.25965 0 -0.000412588)
(-0.260201 0 -8.09693e-05)
(-0.260458 0 1.41901e-05)
(-0.260826 0 -0.00103722)
(-0.259929 0 -0.0041906)
(-0.258287 0 -0.00785214)
(-0.256453 0 -0.0100979)
(-0.254423 0 -0.0115448)
(-0.2523 0 -0.0131929)
(-0.24989 0 -0.0159245)
(-0.247248 0 -0.0202497)
(-0.244441 0 -0.0253219)
(-0.239933 0 -0.0309237)
(-0.233917 0 -0.0351966)
(-0.226518 0 -0.0374006)
(-0.217819 0 -0.0396776)
(-0.207297 0 -0.0436424)
(-0.191221 0 -0.0473367)
(-0.167206 0 -0.0399318)
(-0.151125 0 -0.0200279)
(-0.149065 0 -0.00630592)
(-0.125088 0 0.00417951)
(-0.101533 0 0.00317453)
(-0.0990229 0 0.00913508)
(-0.0947187 0 0.00919345)
(-0.0962297 0 -0.00150907)
(-0.0956363 0 -0.00535797)
(-0.0979297 0 -0.00343902)
(-0.0996466 0 -0.00182889)
(-0.100295 0 -0.00177326)
(-0.0981382 0 -0.00120633)
(-0.0972504 0 -0.00304242)
(-0.0965165 0 -0.00608252)
(-0.0956582 0 -0.00744116)
(-0.0954716 0 -0.010914)
(-0.0939949 0 -0.0142142)
(-0.0931723 0 -0.0181404)
(-0.0919243 0 -0.0198443)
(-0.0881496 0 -0.0213336)
(-0.0829103 0 -0.0163893)
(-0.0707024 0 -0.0095482)
(-0.0621617 0 -0.00566527)
(-0.0475278 0 0.00122117)
(-0.0467795 0 0.00596911)
(-0.0429249 0 0.00814652)
(-0.0432569 0 0.0046231)
(-0.0435496 0 -3.63258e-05)
(-0.044539 0 -0.000571031)
(-0.0464239 0 -5.09054e-05)
(-0.0480863 0 0.000686618)
(-0.048335 0 0.00119432)
(-0.048298 0 0.0013455)
(-0.0486633 0 0.000206658)
(-0.0488219 0 -0.00136036)
(-0.0493384 0 -0.00303566)
(-0.0498925 0 -0.0048998)
(-0.0502801 0 -0.006312)
(-0.0510347 0 -0.00515529)
(-0.0482914 0 -0.002526)
(-0.0467404 0 -0.00203687)
(-0.040066 0 -0.000138805)
(-0.0406035 0 0.00200998)
(-0.0394985 0 0.00393848)
(-0.0402108 0 0.00316704)
(-0.0405372 0 0.00119128)
(-0.0416008 0 0.0011224)
(-0.0427215 0 0.00107098)
(-0.0432888 0 0.00134003)
(-0.0436813 0 0.00155149)
(-0.0441965 0 0.00135066)
(-0.0446242 0 0.00103122)
(-0.0451358 0 0.000989589)
(-0.045619 0 0.000890833)
(-0.045989 0 0.000873883)
(-0.0463218 0 0.000861724)
(-0.0466524 0 0.000850996)
(-0.0469797 0 0.000790133)
(-0.0472888 0 0.000703113)
(-0.0475771 0 0.000642606)
(-0.0478491 0 0.000577023)
(-0.0480775 0 0.000510659)
(-0.0482776 0 0.000437278)
(-0.0484343 0 0.000326511)
(-0.0485579 0 0.000249143)
(-0.0486578 0 0.000188928)
(-0.0487213 0 0.000105599)
(-0.0487383 0 8.99381e-06)
(-0.0487111 0 -9.96707e-05)
(-0.0486547 0 -0.000187764)
(-0.0485678 0 -0.000256168)
(-0.048447 0 -0.000325346)
(-0.0482824 0 -0.000414436)
(-0.0480705 0 -0.000529342)
(-0.0478157 0 -0.000640599)
(-0.0475296 0 -0.000725383)
(-0.0472125 0 -0.000794439)
(-0.0468625 0 -0.000863923)
(-0.0464642 0 -0.000968886)
(-0.0460186 0 -0.00108615)
(-0.0455336 0 -0.00118464)
(-0.0450149 0 -0.00125638)
(-0.0444641 0 -0.0013219)
(-0.0438741 0 -0.00143362)
(-0.04324 0 -0.00155449)
(-0.0425589 0 -0.00164743)
(-0.041843 0 -0.00171195)
(-0.0410942 0 -0.00179743)
(-0.0402988 0 -0.00193382)
(-0.0394515 0 -0.00205287)
(-0.038561 0 -0.00213217)
(-0.037642 0 -0.00219864)
(-0.0366816 0 -0.00230235)
(-0.035668 0 -0.00245253)
(-0.0346021 0 -0.00257111)
(-0.0334993 0 -0.00264709)
(-0.0323631 0 -0.00272259)
(-0.0311769 0 -0.0028285)
(-0.0299454 0 -0.00294714)
(-0.0286758 0 -0.0030605)
(-0.0273682 0 -0.00315177)
(-0.0260283 0 -0.00321853)
(-0.024638 0 -0.00330437)
(-0.0232074 0 -0.00339554)
(-0.0217514 0 -0.00348743)
(-0.0202734 0 -0.00354022)
(-0.0187821 0 -0.00354635)
(-0.0172675 0 -0.00359486)
(-0.0157328 0 -0.00368536)
(-0.0141753 0 -0.00372799)
(-0.0126078 0 -0.00371025)
(-0.0110404 0 -0.00369741)
(-0.00947241 0 -0.003683)
(-0.00792204 0 -0.00365086)
(-0.00640012 0 -0.00361733)
(-0.00489774 0 -0.00355435)
(-0.00341252 0 -0.00349845)
(-0.00194079 0 -0.00343423)
(-0.000496482 0 -0.00333484)
(0.000906906 0 -0.00322358)
(0.00225738 0 -0.00312873)
(0.00357123 0 -0.00305875)
(0.00485904 0 -0.00299717)
(0.00611613 0 -0.00290631)
(0.00732862 0 -0.00279123)
(0.00849762 0 -0.00269471)
(0.00963639 0 -0.00261704)
(0.0107432 0 -0.0025498)
(0.011818 0 -0.0024869)
(0.0128558 0 -0.00240341)
(0.0138552 0 -0.00230739)
(0.0148205 0 -0.00222383)
(0.0157568 0 -0.00215821)
(0.0166629 0 -0.00208936)
(0.0175305 0 -0.00199906)
(0.0183619 0 -0.00190758)
(0.0191613 0 -0.00183716)
(0.0199305 0 -0.00176791)
(0.0206688 0 -0.00170284)
(0.0213754 0 -0.00163207)
(0.0220498 0 -0.00153819)
(0.0226873 0 -0.00144356)
(0.0232878 0 -0.00137095)
(0.0238592 0 -0.00130858)
(0.0244026 0 -0.00124782)
(0.0249145 0 -0.00117548)
(0.0253941 0 -0.00108595)
(0.0258408 0 -0.00100434)
(0.0262558 0 -0.000937376)
(0.0266405 0 -0.000869256)
(0.0269948 0 -0.000800331)
(0.0273197 0 -0.000740968)
(0.0276172 0 -0.000667342)
(0.0278847 0 -0.000588289)
(0.028122 0 -0.000524746)
(0.0283312 0 -0.000464543)
(0.0285143 0 -0.000405754)
(0.0286733 0 -0.000348939)
(0.0288073 0 -0.000285097)
(0.0289156 0 -0.000222654)
(0.0289967 0 -0.000165474)
(0.0290519 0 -0.000115108)
(0.0290859 0 -6.07058e-05)
(0.0290991 0 -7.97881e-06)
(0.0290934 0 3.85336e-05)
(0.0290667 0 8.50164e-05)
(0.0290196 0 0.000121297)
(0.0289567 0 0.000165726)
(0.0288754 0 0.000216114)
(0.0287741 0 0.000255397)
(0.0286572 0 0.000282605)
(0.028529 0 0.000312105)
(0.0283874 0 0.000349349)
(0.0282307 0 0.000384176)
(0.02806 0 0.000406916)
(0.0278796 0 0.000433252)
(0.027691 0 0.000458277)
(0.0274923 0 0.000480496)
(0.0272837 0 0.000498731)
(0.0270659 0 0.000516774)
(0.0268372 0 0.000537887)
(0.0266039 0 0.000553572)
(0.0263683 0 0.000563743)
(0.0261269 0 0.00057144)
(0.0258802 0 0.000583005)
(0.0256277 0 0.000598008)
(0.0253699 0 0.000610395)
(0.0251079 0 0.000620738)
(0.0248437 0 0.00062398)
(0.0245791 0 0.000621169)
(0.0243138 0 0.000623308)
(0.0240457 0 0.000628073)
(0.0237754 0 0.000636694)
(0.0235031 0 0.000644562)
(0.02323 0 0.000645517)
(0.0229568 0 0.000643157)
(0.0226826 0 0.000640578)
(0.0224082 0 0.00064085)
(0.0221348 0 0.000643337)
(0.0218623 0 0.000643831)
(0.0215893 0 0.000638208)
(0.0213183 0 0.000638547)
(0.0210452 0 0.000645649)
(0.0207711 0 0.00064341)
(0.0205 0 0.000637306)
(0.0202311 0 0.000630879)
(0.0199622 0 0.000628687)
(0.019694 0 0.000627755)
(0.0194262 0 0.000631409)
(0.0191583 0 0.000630607)
(0.0188925 0 0.000627686)
(0.0186276 0 0.000621865)
(0.0183637 0 0.000615159)
(0.0181013 0 0.000614353)
(0.0178385 0 0.000618045)
(0.0175764 0 0.000616348)
(0.0173169 0 0.000613311)
(0.0170575 0 0.000610286)
(0.0167979 0 0.000606548)
(0.0165393 0 0.000604747)
(0.0162825 0 0.000604717)
(0.0160266 0 0.000603725)
(0.0157715 0 0.000601562)
(0.0155172 0 0.000595988)
(0.0152634 0 0.000595069)
(0.0150101 0 0.000594833)
(0.0147597 0 0.000592928)
(0.0145088 0 0.000588256)
(0.0142602 0 0.000581591)
(0.0140119 0 0.000583323)
(0.013764 0 0.000582381)
(0.0135184 0 0.000579661)
(0.0132737 0 0.000574339)
(0.0130305 0 0.000569664)
(0.012788 0 0.000566944)
(0.0125484 0 0.000564596)
(0.0123094 0 0.000561415)
(0.0120727 0 0.000555454)
(0.011837 0 0.000550665)
(0.0116032 0 0.000548187)
(0.0113714 0 0.000544704)
(0.011142 0 0.000540257)
(0.0109142 0 0.000532698)
(0.0106892 0 0.000526155)
(0.0104649 0 0.000525315)
(0.0102429 0 0.000520652)
(0.0100246 0 0.000513087)
(0.00980816 0 0.000504219)
(0.0095944 0 0.000500392)
(0.00938244 0 0.000497151)
(0.00917305 0 0.000491305)
(0.00896633 0 0.000485283)
(0.00876269 0 0.00047781)
(0.00856142 0 0.000470227)
(0.00836297 0 0.000463502)
(0.00816735 0 0.000457043)
(0.00797472 0 0.000450959)
(0.00778467 0 0.000445091)
(0.00759733 0 0.000438654)
(0.00741276 0 0.000430932)
(0.00723093 0 0.000423153)
(0.00705187 0 0.000418286)
(0.00687579 0 0.000413488)
(0.0067019 0 0.000407481)
(0.00653075 0 0.000400849)
(0.00636268 0 0.000392959)
(0.00619731 0 0.000385499)
(0.00603445 0 0.00038069)
(0.00587399 0 0.000375597)
(0.00571639 0 0.000370027)
(0.00556117 0 0.000361991)
(0.00540864 0 0.000355271)
(0.00525818 0 0.000351751)
(0.00511014 0 0.000346585)
(0.00496486 0 0.00034087)
(0.00482153 0 0.000334204)
(0.0046808 0 0.000328488)
(0.0045421 0 0.000324883)
(0.00440594 0 0.00031975)
(0.00427196 0 0.000313772)
(0.00413961 0 0.000308116)
(0.00400898 0 0.00030407)
(0.00388078 0 0.000299698)
(0.00375545 0 0.000294821)
(0.00363143 0 0.000290331)
(0.00350945 0 0.000284557)
(0.00338949 0 0.000280187)
(0.00327085 0 0.000276915)
(0.00315451 0 0.000272686)
(0.00304022 0 0.000268531)
(0.00292737 0 0.000264059)
(0.00281661 0 0.000258799)
(0.00270757 0 0.000254486)
(0.00260041 0 0.000250714)
(0.00249487 0 0.000246848)
(0.00239079 0 0.000242264)
(0.0022886 0 0.000238239)
(0.00218774 0 0.000235146)
(0.00208893 0 0.000231586)
(0.00199181 0 0.000228163)
(0.00189598 0 0.000224223)
(0.00180164 0 0.000219681)
(0.00170895 0 0.000215862)
(0.00161772 0 0.000212687)
(0.0015281 0 0.000209867)
(0.00143947 0 0.000206976)
(0.00135248 0 0.000203504)
(0.0012673 0 0.000199906)
(0.00118332 0 0.000196502)
(0.00110079 0 0.000192734)
(0.00101982 0 0.000190608)
(0.000940127 0 0.00018683)
(0.0008621 0 0.000182892)
(0.000785101 0 0.000178754)
(0.00070967 0 0.000177746)
(0.000635218 0 0.000173234)
(0.000563131 0 0.000170363)
(0.0004915 0 0.000166929)
(0.000422261 0 0.000164932)
(0.000353389 0 0.000160433)
(0.000286703 0 0.00015787)
(0.000220798 0 0.000153559)
(0.000156764 0 0.000151217)
(9.38777e-05 0 0.00014778)
(3.21168e-05 0 0.000145699)
(-2.76626e-05 0 0.000143279)
(-8.76743e-05 0 0.000139801)
(-0.000143526 0 0.000139202)
(-0.000202778 0 0.000132678)
(-0.0002544 0 0.000133576)
(-0.000313554 0 0.000125383)
(-0.00036463 0 0.000127507)
(-0.000421815 0 0.000117476)
(-0.000471664 0 0.000120525)
(-0.000522262 0 0.000113575)
(-0.000569854 0 0.000116269)
(-0.000611056 0 0.000101682)
(-0.000657702 0 0.000104451)
(-0.000710888 0 8.36308e-05)
(-0.000752587 0 9.2712e-05)
(-0.000801344 0 0.000105845)
(-0.000833803 0 0.000110285)
(-0.000822755 0 9.02911e-05)
(-0.000864271 0 8.12578e-05)
(-0.000941535 0 -2.9676e-05)
(-0.000979545 0 1.06003e-06)
(-0.00113953 0 0.000149045)
(-0.00121115 0 0.000171268)
(-0.00155237 0 0.00027157)
(-0.0015897 0 0.000266523)
(-0.00174451 0 0.000416402)
(-0.00170848 0 0.000364981)
(-0.00179316 0 0.00022923)
(-0.0018154 0 0.000200694)
(-0.00187982 0 0.000145525)
(-0.00192106 0 0.000126999)
(-0.00197449 0 0.000102317)
(-0.00201665 0 0.000117159)
(-0.00205874 0 9.3384e-05)
(-0.00208929 0 0.000109072)
(-0.00209074 0 6.76324e-05)
(-0.00212022 0 7.59673e-05)
(-0.00217759 0 -1.65008e-05)
(-0.00219973 0 1.74019e-05)
(-0.00230653 0 8.89589e-05)
(-0.00234178 0 0.000118565)
(-0.00255639 0 0.000153935)
(-0.00256734 0 0.000169009)
(-0.00265968 0 0.00023194)
(-0.00262742 0 0.000219417)
(-0.00267606 0 0.000122822)
(-0.00268591 0 0.000116926)
(-0.00270795 0 8.92301e-05)
(-0.00273205 0 7.17507e-05)
(-0.00271307 0 8.04567e-05)
(-0.00275628 0 3.13908e-05)
(-0.00274014 0 5.25078e-05)
(-0.00280384 0 -3.21765e-05)
(-0.00278466 0 1.12183e-05)
(-0.00285411 0 -5.25818e-06)
(-0.00281389 0 6.26933e-05)
(-0.00268934 0 -2.93423e-06)
(-0.00265428 0 4.66077e-05)
(-0.00274761 0 -0.00035605)
(-0.00272368 0 -0.000244029)
(-0.0032756 0 2.50572e-05)
(-0.00335804 0 0.000233379)
(-0.00494155 0 0.000825447)
(-0.00515395 0 0.000912359)
(-0.00572283 0 0.00191793)
(-0.0057726 0 0.00144532)
(-0.00580013 0 0.000991844)
(-0.00589149 0 0.00074665)
(-0.00599604 0 0.000556262)
(-0.00610814 0 0.000434491)
(-0.00621667 0 0.000349356)
(-0.00631839 0 0.00028924)
(-0.00641126 0 0.000244549)
(-0.00649478 0 0.0002102)
(-0.00656962 0 0.000183365)
(-0.00663673 0 0.000161844)
(-0.00669697 0 0.000143638)
(-0.00675109 0 0.000127928)
(-0.00679985 0 0.000114673)
(-0.00684388 0 0.000103644)
(-0.00688361 0 9.41933e-05)
(-0.00691935 0 8.55765e-05)
(-0.00695135 0 7.74537e-05)
(-0.00698002 0 6.98189e-05)
(-0.00700583 0 6.28606e-05)
(-0.00702903 0 5.66719e-05)
(-0.00704993 0 5.11712e-05)
(-0.00706877 0 4.62203e-05)
(-0.0070857 0 4.1607e-05)
(-0.00710075 0 3.71211e-05)
(-0.00711408 0 3.25637e-05)
(-0.00712574 0 2.81774e-05)
(-0.00713549 0 2.37376e-05)
(-0.00714337 0 1.9369e-05)
(-0.00714957 0 1.49539e-05)
(-0.00715412 0 1.04582e-05)
(-0.00715707 0 5.83948e-06)
(-0.00715848 0 1.26776e-06)
(-0.00715843 0 -3.00799e-06)
(-0.00715701 0 -6.87574e-06)
(-0.00715429 0 -1.03117e-05)
(-0.00715028 0 -1.3266e-05)
(-0.00714472 0 -1.57516e-05)
(-0.00713799 0 -1.78788e-05)
(-0.00713062 0 -1.9721e-05)
(-0.00712247 0 -2.12574e-05)
(-0.00711361 0 -2.245e-05)
(-0.00710418 0 -2.32899e-05)
(-0.00709428 0 -2.39012e-05)
(-0.0070839 0 -2.45266e-05)
(-0.00707295 0 -2.54182e-05)
(-0.00706133 0 -2.6727e-05)
(-0.007049 0 -2.84455e-05)
(-0.00703596 0 -3.04826e-05)
(-0.0070222 0 -3.27476e-05)
(-0.00700767 0 -3.51423e-05)
(-0.00699234 0 -3.74022e-05)
(-0.00697626 0 -3.90312e-05)
(-0.0069597 0 -3.95128e-05)
(-0.00694297 0 -3.89577e-05)
(-0.00692622 0 -3.84517e-05)
(-0.00690918 0 -3.93121e-05)
(-0.00689153 0 -4.18595e-05)
(-0.00687337 0 -4.4556e-05)
(-0.00685514 0 -4.5028e-05)
(-0.00683743 0 -4.26111e-05)
(-0.00682046 0 -3.93887e-05)
(-0.00680289 0 -3.90649e-05)
(-0.00678375 0 -4.25376e-05)
(-0.00676396 0 -4.6111e-05)
(-0.00674478 0 -4.57364e-05)
(-0.00672665 0 -4.24347e-05)
(-0.00670812 0 -4.13536e-05)
(-0.00668767 0 -4.60513e-05)