/*--------------------------------*- C++ -*----------------------------------*\
| =========                 |                                                 |
| \\      /  F ield         | OpenFOAM: The Open Source CFD Toolbox           |
|  \\    /   O peration     | Version:  v2006                                 |
|   \\  /    A nd           | Website:  www.openfoam.com                      |
|    \\/     M anipulation  |                                                 |
\*---------------------------------------------------------------------------*/
FoamFile
{
    version     2.0;
    format      ascii;
    class       volScalarField;
    location    "0.6";
    object      k;
}
// * * * * * * * * * * * * * * * * * * * * * * * * * * * * * * * * * * * * * //

dimensions      [0 2 -2 0 0 0 0];


internalField   nonuniform List<scalar> 
33000
(
1.30316e-08
1.37259e-08
1.3697e-08
1.36777e-08
1.36634e-08
1.3649e-08
1.36336e-08
1.36178e-08
1.36019e-08
1.35858e-08
1.35696e-08
1.35532e-08
1.35371e-08
1.35227e-08
1.35126e-08
1.35052e-08
1.34972e-08
1.34822e-08
1.34632e-08
1.3444e-08
1.34243e-08
1.34028e-08
1.3381e-08
1.33591e-08
1.3337e-08
1.3315e-08
1.32928e-08
1.3269e-08
1.32443e-08
1.32194e-08
1.31939e-08
1.31576e-08
1.3121e-08
1.30846e-08
1.30487e-08
1.30182e-08
1.29898e-08
1.29609e-08
1.29295e-08
1.28957e-08
1.28617e-08
1.28275e-08
1.27826e-08
1.27343e-08
1.26848e-08
1.26303e-08
1.25752e-08
1.25202e-08
1.24618e-08
1.24039e-08
1.23466e-08
1.22821e-08
1.22158e-08
1.21524e-08
1.20939e-08
1.20377e-08
1.19825e-08
1.19279e-08
1.18739e-08
1.18204e-08
1.17674e-08
1.17147e-08
1.16623e-08
1.16101e-08
1.15581e-08
1.15062e-08
1.1455e-08
1.14066e-08
1.13593e-08
1.13105e-08
1.12593e-08
1.12047e-08
1.11449e-08
1.10772e-08
1.09973e-08
1.08987e-08
1.07585e-08
1.07334e-08
1.0232e-08
1.02579e-08
1.01424e-08
1.01653e-08
1.01526e-08
1.01392e-08
1.01569e-08
1.01561e-08
1.01416e-08
1.01349e-08
1.01291e-08
1.0125e-08
1.01191e-08
1.01168e-08
1.01142e-08
1.01108e-08
1.01079e-08
1.0104e-08
1.01003e-08
1.00942e-08
1.00918e-08
1.00794e-08
1.00768e-08
1.00706e-08
1.00675e-08
1.00632e-08
1.00587e-08
1.00547e-08
1.005e-08
1.00449e-08
1.00398e-08
1.00346e-08
1.00293e-08
1.00238e-08
1.00181e-08
1.00119e-08
1.0006e-08
9.99706e-09
9.99393e-09
9.97528e-09
9.97233e-09
9.96465e-09
9.96125e-09
9.95675e-09
9.95216e-09
9.94831e-09
9.94392e-09
9.93924e-09
9.93472e-09
9.9301e-09
9.92545e-09
9.92082e-09
9.91616e-09
9.91149e-09
9.90683e-09
9.90215e-09
9.89748e-09
9.89284e-09
9.88823e-09
9.88364e-09
9.87906e-09
9.87451e-09
9.87001e-09
9.86554e-09
9.86111e-09
9.85671e-09
9.85235e-09
9.84803e-09
9.84373e-09
9.83947e-09
9.83526e-09
9.83109e-09
9.82695e-09
9.82285e-09
9.8188e-09
9.81478e-09
9.8108e-09
9.80686e-09
9.80296e-09
9.79911e-09
9.7953e-09
9.79154e-09
9.78782e-09
9.78413e-09
9.78049e-09
9.7769e-09
9.77336e-09
9.76986e-09
9.7664e-09
9.763e-09
9.75964e-09
9.75632e-09
9.75304e-09
9.74981e-09
9.74663e-09
9.74349e-09
9.74039e-09
9.73734e-09
9.73433e-09
9.73137e-09
9.72844e-09
9.72556e-09
9.72272e-09
9.71992e-09
9.71716e-09
9.71445e-09
9.71179e-09
9.70917e-09
9.70659e-09
9.70405e-09
9.70156e-09
9.6991e-09
9.69669e-09
9.69431e-09
9.69199e-09
9.6897e-09
9.68746e-09
9.68525e-09
9.68308e-09
9.68095e-09
9.67886e-09
9.67681e-09
9.67479e-09
9.6728e-09
9.67085e-09
9.66894e-09
9.66706e-09
9.66522e-09
9.66342e-09
9.66165e-09
9.65992e-09
9.65823e-09
9.65658e-09
9.65497e-09
9.65338e-09
9.65183e-09
9.6503e-09
9.6488e-09
9.64732e-09
9.64586e-09
9.64443e-09
9.64303e-09
9.64166e-09
9.64031e-09
9.63899e-09
9.6377e-09
9.63643e-09
9.63518e-09
9.63394e-09
9.63274e-09
9.63156e-09
9.6304e-09
9.62927e-09
9.62816e-09
9.62708e-09
9.62601e-09
9.62497e-09
9.62396e-09
9.62296e-09
9.62198e-09
9.62101e-09
9.62007e-09
9.61916e-09
9.61827e-09
9.61739e-09
9.61653e-09
9.61569e-09
9.61486e-09
9.61404e-09
9.61324e-09
9.61246e-09
9.61168e-09
9.61092e-09
9.61017e-09
9.60944e-09
9.60873e-09
9.60803e-09
9.60734e-09
9.60667e-09
9.60601e-09
9.60537e-09
9.60475e-09
9.60414e-09
9.60354e-09
9.60295e-09
9.60236e-09
9.60179e-09
9.60122e-09
9.60067e-09
9.60013e-09
9.5996e-09
9.59909e-09
9.5986e-09
9.59812e-09
9.59765e-09
9.5972e-09
9.59676e-09
9.59632e-09
9.59589e-09
9.59547e-09
9.59505e-09
9.59464e-09
9.59423e-09
9.59382e-09
9.59342e-09
9.59303e-09
9.59265e-09
9.59228e-09
9.59192e-09
9.59157e-09
9.59124e-09
9.59091e-09
9.5906e-09
9.59029e-09
9.59e-09
9.58971e-09
9.58943e-09
9.58915e-09
9.58888e-09
9.58861e-09
9.58834e-09
9.58808e-09
9.58782e-09
9.58757e-09
9.58732e-09
9.58709e-09
9.58685e-09
9.58663e-09
9.58642e-09
9.58623e-09
9.58603e-09
9.58585e-09
9.58567e-09
9.58549e-09
9.58531e-09
9.58513e-09
9.58494e-09
9.58476e-09
9.58458e-09
9.5844e-09
9.58423e-09
9.58406e-09
9.58391e-09
9.58376e-09
9.58362e-09
9.58349e-09
9.58337e-09
9.58326e-09
9.58315e-09
9.58304e-09
9.58292e-09
9.5828e-09
9.58268e-09
9.58256e-09
9.58245e-09
9.58234e-09
9.58224e-09
9.58216e-09
9.58209e-09
9.58203e-09
9.58196e-09
9.5819e-09
9.58184e-09
9.58177e-09
9.5817e-09
9.58162e-09
9.58154e-09
9.58146e-09
9.58138e-09
9.5813e-09
9.58123e-09
9.58116e-09
9.5811e-09
9.58105e-09
9.58099e-09
9.58093e-09
9.58086e-09
9.58079e-09
9.58071e-09
9.58064e-09
9.58056e-09
9.5805e-09
9.58044e-09
9.58038e-09
9.58033e-09
9.58029e-09
9.58024e-09
9.58019e-09
9.58013e-09
9.58008e-09
9.58003e-09
9.57998e-09
9.57994e-09
9.5799e-09
9.57986e-09
9.57983e-09
9.5798e-09
9.57976e-09
9.57973e-09
9.5797e-09
9.57966e-09
9.57963e-09
9.5796e-09
9.57957e-09
9.57955e-09
9.57954e-09
9.57952e-09
9.57949e-09
9.57946e-09
9.57943e-09
9.5794e-09
9.57936e-09
9.57933e-09
9.5793e-09
9.57927e-09
9.57924e-09
9.57921e-09
9.57916e-09
9.57912e-09
9.57907e-09
9.57902e-09
9.57897e-09
9.57893e-09
9.57889e-09
9.57885e-09
9.57881e-09
9.57878e-09
9.57873e-09
9.57869e-09
9.57866e-09
9.57863e-09
9.5786e-09
9.57857e-09
9.57853e-09
9.5785e-09
9.57847e-09
9.57845e-09
9.57844e-09
9.57843e-09
9.57842e-09
9.57841e-09
9.5784e-09
9.57839e-09
9.57838e-09
9.57836e-09
9.57834e-09
9.57831e-09
9.57828e-09
9.57826e-09
9.57825e-09
9.57823e-09
9.57821e-09
9.57819e-09
9.57818e-09
9.57817e-09
9.57817e-09
9.57817e-09
9.57816e-09
9.57815e-09
9.57813e-09
9.57812e-09
9.57811e-09
9.57811e-09
9.57811e-09
9.57809e-09
9.57809e-09
9.57808e-09
9.57809e-09
9.57809e-09
9.5781e-09
9.57812e-09
9.57815e-09
9.57817e-09
9.57819e-09
9.57821e-09
9.57822e-09
9.57823e-09
9.57823e-09
9.57826e-09
9.57827e-09
9.57827e-09
9.57831e-09
9.57832e-09
9.57832e-09
9.57831e-09
9.57831e-09
9.57831e-09
9.57828e-09
9.5783e-09
9.5783e-09
9.57825e-09
9.57864e-09
9.57851e-09
9.57848e-09
9.57845e-09
9.5784e-09
9.57834e-09
9.57829e-09
9.57824e-09
9.5782e-09
9.57817e-09
9.57818e-09
9.57825e-09
9.57833e-09
9.57841e-09
9.57848e-09
9.57855e-09
9.57863e-09
9.5787e-09
9.57877e-09
9.57883e-09
9.57888e-09
9.57893e-09
9.57898e-09
9.57904e-09
9.5791e-09
9.57917e-09
9.57924e-09
9.57931e-09
9.57937e-09
9.57943e-09
9.57948e-09
9.5795e-09
9.5795e-09
9.57948e-09
9.57944e-09
9.57937e-09
9.57928e-09
9.57919e-09
9.57909e-09
9.57899e-09
9.57889e-09
9.57881e-09
9.57874e-09
9.57869e-09
9.57865e-09
9.57862e-09
9.57859e-09
9.57855e-09
9.57851e-09
9.57847e-09
9.57847e-09
9.57849e-09
9.57853e-09
9.57856e-09
9.57859e-09
9.57857e-09
9.57854e-09
9.5785e-09
9.57852e-09
9.57858e-09
9.57861e-09
9.57857e-09
9.57846e-09
9.57832e-09
9.57822e-09
9.57822e-09
9.57819e-09
9.57817e-09
9.57813e-09
9.57808e-09
9.57812e-09
9.57808e-09
9.57806e-09
9.57812e-09
9.5783e-09
9.57834e-09
9.57828e-09
9.57823e-09
9.57818e-09
9.57812e-09
9.58541e-09
1.0012e-08
1.00136e-08
1.00134e-08
1.00134e-08
1.00136e-08
1.0014e-08
1.00143e-08
1.00147e-08
1.00149e-08
1.00152e-08
1.00153e-08
1.00153e-08
1.00151e-08
1.0015e-08
1.00149e-08
1.00148e-08
1.00147e-08
1.00146e-08
1.00146e-08
1.00146e-08
1.00145e-08
1.00145e-08
1.00145e-08
1.00144e-08
1.00143e-08
1.00141e-08
1.0014e-08
1.00138e-08
1.00136e-08
1.00133e-08
1.00129e-08
1.00127e-08
1.00125e-08
1.00123e-08
1.00122e-08
1.00121e-08
1.0012e-08
1.00119e-08
1.00118e-08
1.00117e-08
1.00116e-08
1.00115e-08
1.00115e-08
1.00114e-08
1.00112e-08
1.00109e-08
1.00108e-08
1.00107e-08
1.00106e-08
1.00105e-08
1.00105e-08
1.00105e-08
1.00105e-08
1.00105e-08
1.00105e-08
1.00105e-08
1.00105e-08
1.00106e-08
1.00106e-08
1.00107e-08
1.00106e-08
1.00104e-08
1.00102e-08
1.00102e-08
1.00102e-08
1.00103e-08
1.00105e-08
1.00107e-08
1.00111e-08
1.00111e-08
1.00114e-08
1.00119e-08
1.00129e-08
1.00141e-08
1.0016e-08
1.00187e-08
1.00224e-08
1.0027e-08
1.00232e-08
1.0013e-08
1.00117e-08
1.00075e-08
1.00087e-08
1.00075e-08
1.00075e-08
1.00084e-08
1.00045e-08
1.00035e-08
1.00047e-08
1.00028e-08
1.00032e-08
1.00021e-08
1.00024e-08
1.00021e-08
1.00021e-08
1.00021e-08
1.00021e-08
1.00022e-08
1.00021e-08
1.00021e-08
1.0002e-08
1.00024e-08
1.00023e-08
1.00018e-08
1.00018e-08
1.00015e-08
1.00015e-08
1.00013e-08
1.00012e-08
1.00011e-08
1.00011e-08
1.00011e-08
1.0001e-08
1.0001e-08
1.0001e-08
1.00012e-08
1.0001e-08
1.00011e-08
1.0001e-08
1.00023e-08
1.00022e-08
1.00009e-08
1.0001e-08
1.00005e-08
1.00005e-08
1.00002e-08
1.00001e-08
1.00001e-08
1.00001e-08
1.00001e-08
1.00001e-08
1e-08
9.99999e-09
9.99996e-09
9.99993e-09
9.9999e-09
9.99987e-09
9.99984e-09
9.99981e-09
9.99978e-09
9.99975e-09
9.99972e-09
9.9997e-09
9.99968e-09
9.99966e-09
9.99964e-09
9.99962e-09
9.9996e-09
9.99958e-09
9.99956e-09
9.99955e-09
9.99953e-09
9.99951e-09
9.99949e-09
9.99947e-09
9.99945e-09
9.99942e-09
9.9994e-09
9.99938e-09
9.99936e-09
9.99933e-09
9.99931e-09
9.99929e-09
9.99927e-09
9.99924e-09
9.99921e-09
9.99919e-09
9.99916e-09
9.99913e-09
9.99911e-09
9.99908e-09
9.99906e-09
9.99903e-09
9.999e-09
9.99897e-09
9.99894e-09
9.99891e-09
9.99888e-09
9.99886e-09
9.99883e-09
9.99881e-09
9.99878e-09
9.99876e-09
9.99874e-09
9.99871e-09
9.99869e-09
9.99867e-09
9.99865e-09
9.99863e-09
9.99861e-09
9.9986e-09
9.99858e-09
9.99856e-09
9.99854e-09
9.99852e-09
9.9985e-09
9.99848e-09
9.99847e-09
9.99845e-09
9.99844e-09
9.99842e-09
9.99841e-09
9.99839e-09
9.99838e-09
9.99836e-09
9.99834e-09
9.99833e-09
9.99832e-09
9.9983e-09
9.99829e-09
9.99828e-09
9.99827e-09
9.99826e-09
9.99824e-09
9.99823e-09
9.99822e-09
9.99821e-09
9.9982e-09
9.99819e-09
9.99818e-09
9.99817e-09
9.99816e-09
9.99815e-09
9.99814e-09
9.99813e-09
9.99812e-09
9.99811e-09
9.9981e-09
9.9981e-09
9.99809e-09
9.99808e-09
9.99807e-09
9.99807e-09
9.99806e-09
9.99805e-09
9.99804e-09
9.99803e-09
9.99803e-09
9.99802e-09
9.99802e-09
9.99801e-09
9.99801e-09
9.998e-09
9.998e-09
9.99799e-09
9.99799e-09
9.99798e-09
9.99798e-09
9.99797e-09
9.99797e-09
9.99796e-09
9.99796e-09
9.99796e-09
9.99795e-09
9.99795e-09
9.99795e-09
9.99794e-09
9.99794e-09
9.99794e-09
9.99794e-09
9.99793e-09
9.99793e-09
9.99792e-09
9.99792e-09
9.99792e-09
9.99791e-09
9.99791e-09
9.99791e-09
9.9979e-09
9.9979e-09
9.9979e-09
9.9979e-09
9.9979e-09
9.99789e-09
9.99789e-09
9.99789e-09
9.99789e-09
9.99788e-09
9.99788e-09
9.99788e-09
9.99788e-09
9.99788e-09
9.99787e-09
9.99787e-09
9.99787e-09
9.99787e-09
9.99787e-09
9.99787e-09
9.99787e-09
9.99787e-09
9.99787e-09
9.99787e-09
9.99787e-09
9.99787e-09
9.99787e-09
9.99786e-09
9.99786e-09
9.99786e-09
9.99786e-09
9.99786e-09
9.99786e-09
9.99786e-09
9.99786e-09
9.99786e-09
9.99786e-09
9.99786e-09
9.99786e-09
9.99786e-09
9.99786e-09
9.99786e-09
9.99786e-09
9.99786e-09
9.99786e-09
9.99786e-09
9.99786e-09
9.99786e-09
9.99786e-09
9.99786e-09
9.99786e-09
9.99786e-09
9.99786e-09
9.99786e-09
9.99786e-09
9.99786e-09
9.99786e-09
9.99786e-09
9.99786e-09
9.99786e-09
9.99786e-09
9.99786e-09
9.99785e-09
9.99785e-09
9.99785e-09
9.99785e-09
9.99785e-09
9.99785e-09
9.99785e-09
9.99785e-09
9.99785e-09
9.99785e-09
9.99785e-09
9.99785e-09
9.99785e-09
9.99785e-09
9.99784e-09
9.99784e-09
9.99784e-09
9.99784e-09
9.99784e-09
9.99784e-09
9.99784e-09
9.99784e-09
9.99784e-09
9.99784e-09
9.99783e-09
9.99783e-09
9.99783e-09
9.99783e-09
9.99783e-09
9.99783e-09
9.99783e-09
9.99783e-09
9.99783e-09
9.99782e-09
9.99782e-09
9.99782e-09
9.99782e-09
9.99782e-09
9.99782e-09
9.99782e-09
9.99782e-09
9.99782e-09
9.99782e-09
9.99782e-09
9.99782e-09
9.99782e-09
9.99781e-09
9.99781e-09
9.99781e-09
9.99781e-09
9.99781e-09
9.99781e-09
9.99781e-09
9.99781e-09
9.99781e-09
9.99781e-09
9.99781e-09
9.99781e-09
9.99781e-09
9.99781e-09
9.99781e-09
9.9978e-09
9.9978e-09
9.9978e-09
9.9978e-09
9.9978e-09
9.9978e-09
9.9978e-09
9.9978e-09
9.9978e-09
9.9978e-09
9.9978e-09
9.9978e-09
9.9978e-09
9.99779e-09
9.99779e-09
9.99779e-09
9.99779e-09
9.99779e-09
9.99779e-09
9.99779e-09
9.99779e-09
9.99779e-09
9.99779e-09
9.99779e-09
9.99779e-09
9.99779e-09
9.99779e-09
9.99779e-09
9.99779e-09
9.99779e-09
9.99779e-09
9.99779e-09
9.99779e-09
9.99779e-09
9.99779e-09
9.99779e-09
9.99779e-09
9.99779e-09
9.99779e-09
9.99779e-09
9.99779e-09
9.99779e-09
9.99779e-09
9.99779e-09
9.99779e-09
9.99779e-09
9.99779e-09
9.99779e-09
9.99779e-09
9.99779e-09
9.99779e-09
9.99779e-09
9.99779e-09
9.99779e-09
9.99779e-09
9.99779e-09
9.99779e-09
9.99779e-09
9.99779e-09
9.99779e-09
9.99779e-09
9.99778e-09
9.99778e-09
9.99778e-09
9.99778e-09
9.99778e-09
9.99778e-09
9.99778e-09
9.99778e-09
9.99778e-09
9.99778e-09
9.99778e-09
9.99778e-09
9.99778e-09
9.99778e-09
9.99777e-09
9.99776e-09
9.99776e-09
9.99774e-09
9.99775e-09
9.99775e-09
9.99775e-09
9.99775e-09
9.99775e-09
9.99775e-09
9.99775e-09
9.99775e-09
9.99775e-09
9.99775e-09
9.99775e-09
9.99775e-09
9.99775e-09
9.99775e-09
9.99776e-09
9.99776e-09
9.99776e-09
9.99776e-09
9.99776e-09
9.99777e-09
9.99777e-09
9.99777e-09
9.99777e-09
9.99777e-09
9.99778e-09
9.99778e-09
9.99778e-09
9.99778e-09
9.99779e-09
9.99779e-09
9.99779e-09
9.9978e-09
9.9978e-09
9.99781e-09
9.99781e-09
9.99781e-09
9.99781e-09
9.99782e-09
9.99782e-09
9.99782e-09
9.99782e-09
9.99782e-09
9.99782e-09
9.99782e-09
9.99782e-09
9.99782e-09
9.99782e-09
9.99783e-09
9.99783e-09
9.99783e-09
9.99783e-09
9.99783e-09
9.99783e-09
9.99783e-09
9.99783e-09
9.99783e-09
9.99783e-09
9.99783e-09
9.99783e-09
9.99783e-09
9.99783e-09
9.99782e-09
9.99783e-09
9.99783e-09
9.99783e-09
9.99783e-09
9.99782e-09
9.99783e-09
9.99783e-09
9.99783e-09
9.99783e-09
9.99783e-09
9.99784e-09
9.99784e-09
9.99783e-09
9.99783e-09
9.99783e-09
9.99782e-09
9.99782e-09
9.99786e-09
1.0009e-08
1.00082e-08
1.0007e-08
1.00061e-08
1.00054e-08
1.00051e-08
1.00049e-08
1.00048e-08
1.00047e-08
1.00046e-08
1.00045e-08
1.00044e-08
1.00043e-08
1.00041e-08
1.00039e-08
1.00037e-08
1.00034e-08
1.00032e-08
1.0003e-08
1.00028e-08
1.00025e-08
1.00023e-08
1.00021e-08
1.00019e-08
1.00017e-08
1.00015e-08
1.00014e-08
1.00012e-08
1.0001e-08
1.00009e-08
1.00008e-08
1.00007e-08
1.00007e-08
1.00006e-08
1.00006e-08
1.00005e-08
1.00005e-08
1.00006e-08
1.00007e-08
1.00007e-08
1.00008e-08
1.00008e-08
1.00008e-08
1.00008e-08
1.00008e-08
1.00008e-08
1.00007e-08
1.00007e-08
1.00007e-08
1.00007e-08
1.00007e-08
1.00007e-08
1.00008e-08
1.00008e-08
1.00009e-08
1.00009e-08
1.0001e-08
1.00011e-08
1.00012e-08
1.00012e-08
1.00013e-08
1.00013e-08
1.00014e-08
1.00015e-08
1.00015e-08
1.00016e-08
1.00017e-08
1.00019e-08
1.0002e-08
1.00022e-08
1.00024e-08
1.00026e-08
1.00027e-08
1.00029e-08
1.00031e-08
1.00032e-08
1.00034e-08
1.00034e-08
1.00033e-08
1.00034e-08
1.00036e-08
1.00039e-08
1.00038e-08
1.00039e-08
1.00042e-08
1.00042e-08
1.0004e-08
1.00041e-08
1.00038e-08
1.0004e-08
1.00019e-08
1.00025e-08
1.00027e-08
1.00029e-08
1.00026e-08
1.00029e-08
1.00024e-08
1.00023e-08
1.00024e-08
1.00023e-08
1.00024e-08
1.00024e-08
1.00025e-08
1.00025e-08
1.00028e-08
1.00028e-08
1.00025e-08
1.00025e-08
1.00023e-08
1.00022e-08
1.00022e-08
1.0002e-08
1.0002e-08
1.0002e-08
1.00019e-08
1.00019e-08
1.00018e-08
1.00018e-08
1.00018e-08
1.00018e-08
1.0002e-08
1.0002e-08
1.00031e-08
1.00031e-08
1.00019e-08
1.0002e-08
1.00015e-08
1.00015e-08
1.00013e-08
1.00013e-08
1.00012e-08
1.00012e-08
1.00012e-08
1.00012e-08
1.00011e-08
1.00011e-08
1.00011e-08
1.0001e-08
1.0001e-08
1.0001e-08
1.0001e-08
1.0001e-08
1.0001e-08
1.0001e-08
1.00009e-08
1.00009e-08
1.00009e-08
1.00009e-08
1.00009e-08
1.00009e-08
1.00009e-08
1.00009e-08
1.00009e-08
1.00009e-08
1.00009e-08
1.00009e-08
1.00009e-08
1.00008e-08
1.00008e-08
1.00008e-08
1.00008e-08
1.00008e-08
1.00008e-08
1.00008e-08
1.00008e-08
1.00008e-08
1.00008e-08
1.00007e-08
1.00007e-08
1.00007e-08
1.00007e-08
1.00007e-08
1.00007e-08
1.00007e-08
1.00007e-08
1.00006e-08
1.00006e-08
1.00006e-08
1.00006e-08
1.00006e-08
1.00006e-08
1.00006e-08
1.00006e-08
1.00005e-08
1.00005e-08
1.00005e-08
1.00005e-08
1.00005e-08
1.00005e-08
1.00005e-08
1.00004e-08
1.00004e-08
1.00004e-08
1.00004e-08
1.00004e-08
1.00004e-08
1.00004e-08
1.00003e-08
1.00003e-08
1.00003e-08
1.00003e-08
1.00003e-08
1.00003e-08
1.00003e-08
1.00002e-08
1.00002e-08
1.00002e-08
1.00002e-08
1.00002e-08
1.00002e-08
1.00002e-08
1.00001e-08
1.00001e-08
1.00001e-08
1.00001e-08
1.00001e-08
1.00001e-08
1.00001e-08
1.00001e-08
1e-08
1e-08
1e-08
1e-08
1e-08
9.99998e-09
9.99997e-09
9.99995e-09
9.99994e-09
9.99993e-09
9.99992e-09
9.99991e-09
9.9999e-09
9.99989e-09
9.99988e-09
9.99987e-09
9.99986e-09
9.99985e-09
9.99984e-09
9.99983e-09
9.99982e-09
9.99981e-09
9.9998e-09
9.99979e-09
9.99979e-09
9.99978e-09
9.99977e-09
9.99976e-09
9.99975e-09
9.99974e-09
9.99973e-09
9.99973e-09
9.99972e-09
9.99971e-09
9.9997e-09
9.99969e-09
9.99969e-09
9.99969e-09
9.99968e-09
9.99968e-09
9.99967e-09
9.99966e-09
9.99965e-09
9.99965e-09
9.99964e-09
9.99963e-09
9.99963e-09
9.99962e-09
9.99962e-09
9.99961e-09
9.99961e-09
9.9996e-09
9.9996e-09
9.9996e-09
9.99959e-09
9.99959e-09
9.99958e-09
9.99958e-09
9.99958e-09
9.99957e-09
9.99957e-09
9.99956e-09
9.99956e-09
9.99956e-09
9.99956e-09
9.99955e-09
9.99955e-09
9.99955e-09
9.99955e-09
9.99955e-09
9.99955e-09
9.99954e-09
9.99954e-09
9.99954e-09
9.99954e-09
9.99953e-09
9.99953e-09
9.99953e-09
9.99953e-09
9.99953e-09
9.99952e-09
9.99952e-09
9.99952e-09
9.99952e-09
9.99952e-09
9.99952e-09
9.99952e-09
9.99952e-09
9.99952e-09
9.99952e-09
9.99952e-09
9.99952e-09
9.99952e-09
9.99952e-09
9.99952e-09
9.99952e-09
9.99952e-09
9.99952e-09
9.99951e-09
9.99951e-09
9.99951e-09
9.99951e-09
9.99951e-09
9.99951e-09
9.99951e-09
9.99951e-09
9.99951e-09
9.99951e-09
9.99951e-09
9.99951e-09
9.99951e-09
9.99951e-09
9.99951e-09
9.99951e-09
9.99951e-09
9.99951e-09
9.99951e-09
9.99951e-09
9.99951e-09
9.99951e-09
9.9995e-09
9.9995e-09
9.9995e-09
9.9995e-09
9.9995e-09
9.9995e-09
9.9995e-09
9.9995e-09
9.9995e-09
9.9995e-09
9.99949e-09
9.99949e-09
9.99949e-09
9.99949e-09
9.99949e-09
9.99949e-09
9.99949e-09
9.99949e-09
9.99949e-09
9.99949e-09
9.99948e-09
9.99948e-09
9.99948e-09
9.99948e-09
9.99948e-09
9.99948e-09
9.99948e-09
9.99948e-09
9.99948e-09
9.99948e-09
9.99947e-09
9.99947e-09
9.99947e-09
9.99947e-09
9.99947e-09
9.99947e-09
9.99947e-09
9.99947e-09
9.99947e-09
9.99947e-09
9.99947e-09
9.99947e-09
9.99947e-09
9.99947e-09
9.99947e-09
9.99947e-09
9.99946e-09
9.99946e-09
9.99946e-09
9.99946e-09
9.99946e-09
9.99946e-09
9.99946e-09
9.99946e-09
9.99946e-09
9.99946e-09
9.99946e-09
9.99946e-09
9.99946e-09
9.99946e-09
9.99946e-09
9.99946e-09
9.99945e-09
9.99945e-09
9.99945e-09
9.99945e-09
9.99945e-09
9.99945e-09
9.99945e-09
9.99945e-09
9.99945e-09
9.99945e-09
9.99945e-09
9.99945e-09
9.99945e-09
9.99945e-09
9.99945e-09
9.99945e-09
9.99945e-09
9.99945e-09
9.99945e-09
9.99945e-09
9.99945e-09
9.99945e-09
9.99945e-09
9.99945e-09
9.99945e-09
9.99945e-09
9.99945e-09
9.99945e-09
9.99945e-09
9.99945e-09
9.99945e-09
9.99945e-09
9.99945e-09
9.99945e-09
9.99945e-09
9.99945e-09
9.99945e-09
9.99945e-09
9.99945e-09
9.99945e-09
9.99945e-09
9.99945e-09
9.99945e-09
9.99945e-09
9.99945e-09
9.99945e-09
9.99945e-09
9.99945e-09
9.99945e-09
9.99944e-09
9.99945e-09
9.99945e-09
9.99944e-09
9.99944e-09
9.99944e-09
9.99944e-09
9.99944e-09
9.99944e-09
9.99944e-09
9.99945e-09
9.99944e-09
9.99945e-09
9.99944e-09
9.99943e-09
9.99942e-09
9.99941e-09
9.99941e-09
9.99941e-09
9.99941e-09
9.99941e-09
9.99941e-09
9.99941e-09
9.99941e-09
9.99941e-09
9.99941e-09
9.99941e-09
9.99941e-09
9.99941e-09
9.99941e-09
9.99941e-09
9.99942e-09
9.99942e-09
9.99942e-09
9.99942e-09
9.99942e-09
9.99942e-09
9.99942e-09
9.99943e-09
9.99943e-09
9.99943e-09
9.99943e-09
9.99943e-09
9.99944e-09
9.99944e-09
9.99944e-09
9.99944e-09
9.99944e-09
9.99945e-09
9.99945e-09
9.99945e-09
9.99946e-09
9.99946e-09
9.99946e-09
9.99946e-09
9.99947e-09
9.99947e-09
9.99947e-09
9.99947e-09
9.99947e-09
9.99947e-09
9.99948e-09
9.99948e-09
9.99948e-09
9.99948e-09
9.99948e-09
9.99948e-09
9.99948e-09
9.99948e-09
9.99948e-09
9.99948e-09
9.99949e-09
9.99949e-09
9.99949e-09
9.99949e-09
9.99949e-09
9.99949e-09
9.99949e-09
9.99949e-09
9.99949e-09
9.99948e-09
9.99948e-09
9.99949e-09
9.99948e-09
9.99949e-09
9.99948e-09
9.99949e-09
9.99949e-09
9.99949e-09
9.99949e-09
9.99948e-09
9.99949e-09
9.99949e-09
9.99949e-09
9.99948e-09
9.99948e-09
9.99948e-09
9.99949e-09
9.99949e-09
9.99948e-09
1.00041e-08
1.00036e-08
1.00037e-08
1.00037e-08
1.00038e-08
1.0004e-08
1.00042e-08
1.00044e-08
1.00045e-08
1.00046e-08
1.00047e-08
1.00046e-08
1.00046e-08
1.00045e-08
1.00043e-08
1.00041e-08
1.0004e-08
1.00038e-08
1.00036e-08
1.00034e-08
1.00033e-08
1.00031e-08
1.00029e-08
1.00027e-08
1.00025e-08
1.00024e-08
1.00022e-08
1.0002e-08
1.00019e-08
1.00017e-08
1.00016e-08
1.00015e-08
1.00014e-08
1.00014e-08
1.00013e-08
1.00013e-08
1.00013e-08
1.00013e-08
1.00014e-08
1.00015e-08
1.00015e-08
1.00016e-08
1.00016e-08
1.00016e-08
1.00016e-08
1.00016e-08
1.00015e-08
1.00015e-08
1.00014e-08
1.00014e-08
1.00014e-08
1.00015e-08
1.00015e-08
1.00016e-08
1.00016e-08
1.00017e-08
1.00017e-08
1.00018e-08
1.00018e-08
1.00018e-08
1.00019e-08
1.00019e-08
1.00019e-08
1.0002e-08
1.00021e-08
1.00023e-08
1.00024e-08
1.00026e-08
1.00027e-08
1.00029e-08
1.0003e-08
1.00031e-08
1.00032e-08
1.00033e-08
1.00034e-08
1.00035e-08
1.00035e-08
1.00035e-08
1.00035e-08
1.00035e-08
1.00026e-08
1.00029e-08
1.00035e-08
1.00037e-08
1.00041e-08
1.00038e-08
1.00037e-08
1.0004e-08
1.00043e-08
1.00042e-08
1.00041e-08
1.0004e-08
1.00042e-08
1.00021e-08
1.00023e-08
1.00029e-08
1.0003e-08
1.00027e-08
1.0003e-08
1.00025e-08
1.00023e-08
1.00024e-08
1.00024e-08
1.00025e-08
1.00025e-08
1.00025e-08
1.00026e-08
1.00027e-08
1.00029e-08
1.00028e-08
1.00024e-08
1.00024e-08
1.00022e-08
1.00021e-08
1.0002e-08
1.00019e-08
1.00019e-08
1.00018e-08
1.00018e-08
1.00018e-08
1.00017e-08
1.00018e-08
1.00018e-08
1.00021e-08
1.0002e-08
1.00031e-08
1.00032e-08
1.0002e-08
1.0002e-08
1.00015e-08
1.00015e-08
1.00013e-08
1.00012e-08
1.00012e-08
1.00012e-08
1.00012e-08
1.00011e-08
1.00011e-08
1.00011e-08
1.0001e-08
1.0001e-08
1.0001e-08
1.0001e-08
1.0001e-08
1.0001e-08
1.0001e-08
1.0001e-08
1.0001e-08
1.0001e-08
1.00009e-08
1.00009e-08
1.00009e-08
1.00009e-08
1.00009e-08
1.00009e-08
1.00009e-08
1.00009e-08
1.00009e-08
1.00009e-08
1.00009e-08
1.00008e-08
1.00008e-08
1.00008e-08
1.00008e-08
1.00008e-08
1.00008e-08
1.00008e-08
1.00008e-08
1.00008e-08
1.00007e-08
1.00007e-08
1.00007e-08
1.00007e-08
1.00007e-08
1.00007e-08
1.00007e-08
1.00007e-08
1.00006e-08
1.00006e-08
1.00006e-08
1.00006e-08
1.00006e-08
1.00006e-08
1.00006e-08
1.00006e-08
1.00005e-08
1.00005e-08
1.00005e-08
1.00005e-08
1.00005e-08
1.00005e-08
1.00005e-08
1.00004e-08
1.00004e-08
1.00004e-08
1.00004e-08
1.00004e-08
1.00004e-08
1.00003e-08
1.00003e-08
1.00003e-08
1.00003e-08
1.00003e-08
1.00003e-08
1.00003e-08
1.00002e-08
1.00002e-08
1.00002e-08
1.00002e-08
1.00002e-08
1.00002e-08
1.00002e-08
1.00001e-08
1.00001e-08
1.00001e-08
1.00001e-08
1.00001e-08
1.00001e-08
1.00001e-08
1.00001e-08
1e-08
1e-08
1e-08
1e-08
9.99999e-09
9.99998e-09
9.99996e-09
9.99995e-09
9.99994e-09
9.99993e-09
9.99992e-09
9.99991e-09
9.9999e-09
9.99989e-09
9.99988e-09
9.99987e-09
9.99986e-09
9.99985e-09
9.99984e-09
9.99983e-09
9.99982e-09
9.99981e-09
9.9998e-09
9.9998e-09
9.99979e-09
9.99978e-09
9.99977e-09
9.99976e-09
9.99975e-09
9.99974e-09
9.99973e-09
9.99973e-09
9.99972e-09
9.99971e-09
9.99971e-09
9.9997e-09
9.99969e-09
9.99969e-09
9.99968e-09
9.99967e-09
9.99967e-09
9.99966e-09
9.99965e-09
9.99965e-09
9.99964e-09
9.99963e-09
9.99963e-09
9.99963e-09
9.99962e-09
9.99962e-09
9.99961e-09
9.99961e-09
9.9996e-09
9.9996e-09
9.99959e-09
9.99959e-09
9.99958e-09
9.99958e-09
9.99958e-09
9.99957e-09
9.99957e-09
9.99957e-09
9.99956e-09
9.99956e-09
9.99956e-09
9.99956e-09
9.99956e-09
9.99955e-09
9.99955e-09
9.99955e-09
9.99955e-09
9.99955e-09
9.99955e-09
9.99954e-09
9.99954e-09
9.99954e-09
9.99953e-09
9.99953e-09
9.99953e-09
9.99953e-09
9.99953e-09
9.99953e-09
9.99953e-09
9.99953e-09
9.99953e-09
9.99953e-09
9.99953e-09
9.99953e-09
9.99953e-09
9.99952e-09
9.99952e-09
9.99952e-09
9.99952e-09
9.99952e-09
9.99952e-09
9.99952e-09
9.99952e-09
9.99952e-09
9.99952e-09
9.99952e-09
9.99952e-09
9.99952e-09
9.99952e-09
9.99952e-09
9.99952e-09
9.99952e-09
9.99952e-09
9.99952e-09
9.99952e-09
9.99951e-09
9.99951e-09
9.99951e-09
9.99951e-09
9.99951e-09
9.99951e-09
9.99951e-09
9.99951e-09
9.99951e-09
9.99951e-09
9.99951e-09
9.99951e-09
9.99951e-09
9.99951e-09
9.9995e-09
9.9995e-09
9.9995e-09
9.9995e-09
9.9995e-09
9.9995e-09
9.9995e-09
9.9995e-09
9.9995e-09
9.9995e-09
9.9995e-09
9.9995e-09
9.99949e-09
9.99949e-09
9.99949e-09
9.99949e-09
9.99949e-09
9.99949e-09
9.99949e-09
9.99949e-09
9.99949e-09
9.99949e-09
9.99949e-09
9.99948e-09
9.99948e-09
9.99948e-09
9.99948e-09
9.99948e-09
9.99948e-09
9.99948e-09
9.99948e-09
9.99948e-09
9.99948e-09
9.99948e-09
9.99948e-09
9.99948e-09
9.99948e-09
9.99948e-09
9.99948e-09
9.99947e-09
9.99947e-09
9.99947e-09
9.99947e-09
9.99947e-09
9.99947e-09
9.99947e-09
9.99947e-09
9.99947e-09
9.99947e-09
9.99947e-09
9.99947e-09
9.99947e-09
9.99947e-09
9.99947e-09
9.99947e-09
9.99946e-09
9.99946e-09
9.99946e-09
9.99946e-09
9.99946e-09
9.99946e-09
9.99946e-09
9.99946e-09
9.99946e-09
9.99946e-09
9.99946e-09
9.99946e-09
9.99946e-09
9.99946e-09
9.99946e-09
9.99946e-09
9.99946e-09
9.99946e-09
9.99946e-09
9.99946e-09
9.99946e-09
9.99946e-09
9.99946e-09
9.99946e-09
9.99946e-09
9.99946e-09
9.99946e-09
9.99946e-09
9.99946e-09
9.99946e-09
9.99946e-09
9.99946e-09
9.99946e-09
9.99946e-09
9.99946e-09
9.99946e-09
9.99946e-09
9.99946e-09
9.99946e-09
9.99946e-09
9.99946e-09
9.99946e-09
9.99946e-09
9.99946e-09
9.99946e-09
9.99946e-09
9.99946e-09
9.99946e-09
9.99946e-09
9.99946e-09
9.99945e-09
9.99945e-09
9.99945e-09
9.99946e-09
9.99946e-09
9.99945e-09
9.99945e-09
9.99945e-09
9.99945e-09
9.99946e-09
9.99945e-09
9.99946e-09
9.99946e-09
9.99944e-09
9.99944e-09
9.99943e-09
9.99943e-09
9.99943e-09
9.99943e-09
9.99943e-09
9.99943e-09
9.99943e-09
9.99942e-09
9.99942e-09
9.99942e-09
9.99942e-09
9.99942e-09
9.99942e-09
9.99942e-09
9.99942e-09
9.99942e-09
9.99942e-09
9.99942e-09
9.99942e-09
9.99943e-09
9.99943e-09
9.99943e-09
9.99943e-09
9.99943e-09
9.99943e-09
9.99944e-09
9.99944e-09
9.99944e-09
9.99944e-09
9.99944e-09
9.99944e-09
9.99945e-09
9.99945e-09
9.99945e-09
9.99945e-09
9.99946e-09
9.99946e-09
9.99946e-09
9.99946e-09
9.99947e-09
9.99947e-09
9.99947e-09
9.99947e-09
9.99948e-09
9.99948e-09
9.99948e-09
9.99948e-09
9.99948e-09
9.99948e-09
9.99948e-09
9.99948e-09
9.99949e-09
9.99949e-09
9.99949e-09
9.99949e-09
9.99949e-09
9.99949e-09
9.99949e-09
9.99949e-09
9.9995e-09
9.9995e-09
9.99949e-09
9.99949e-09
9.99949e-09
9.99949e-09
9.99949e-09
9.99949e-09
9.99949e-09
9.99949e-09
9.99949e-09
9.99949e-09
9.99949e-09
9.99949e-09
9.9995e-09
9.99949e-09
9.9995e-09
9.99949e-09
9.99949e-09
9.9995e-09
9.9995e-09
9.99949e-09
9.99949e-09
9.99949e-09
9.99949e-09
9.9995e-09
9.9995e-09
9.99949e-09
1.00049e-08
1.00036e-08
1.00037e-08
1.00038e-08
1.00039e-08
1.00041e-08
1.00043e-08
1.00045e-08
1.00047e-08
1.00048e-08
1.00048e-08
1.00048e-08
1.00047e-08
1.00047e-08
1.00046e-08
1.00045e-08
1.00045e-08
1.00044e-08
1.00043e-08
1.00042e-08
1.00041e-08
1.0004e-08
1.00039e-08
1.00037e-08
1.00036e-08
1.00034e-08
1.00033e-08
1.00032e-08
1.0003e-08
1.00029e-08
1.00027e-08
1.00026e-08
1.00024e-08
1.00023e-08
1.00021e-08
1.00019e-08
1.00018e-08
1.00017e-08
1.00017e-08
1.00017e-08
1.00017e-08
1.00018e-08
1.00019e-08
1.00019e-08
1.0002e-08
1.0002e-08
1.0002e-08
1.00021e-08
1.00021e-08
1.00021e-08
1.00021e-08
1.00022e-08
1.00023e-08
1.00023e-08
1.00023e-08
1.00024e-08
1.00024e-08
1.00024e-08
1.00024e-08
1.00024e-08
1.00024e-08
1.00024e-08
1.00025e-08
1.00025e-08
1.00027e-08
1.00028e-08
1.0003e-08
1.00031e-08
1.00033e-08
1.00034e-08
1.00035e-08
1.00035e-08
1.00035e-08
1.00036e-08
1.00036e-08
1.00037e-08
1.00037e-08
1.00037e-08
1.00037e-08
1.00037e-08
1.00036e-08
1.00033e-08
1.00028e-08
1.00034e-08
1.00035e-08
1.00036e-08
1.00036e-08
1.00038e-08
1.0004e-08
1.0004e-08
1.00043e-08
1.00045e-08
1.00043e-08
1.00043e-08
1.00041e-08
1.00042e-08
1.00023e-08
1.00023e-08
1.00029e-08
1.0003e-08
1.00028e-08
1.0003e-08
1.00025e-08
1.00024e-08
1.00024e-08
1.00024e-08
1.00025e-08
1.00026e-08
1.00025e-08
1.00026e-08
1.00025e-08
1.00028e-08
1.00028e-08
1.00024e-08
1.00023e-08
1.00021e-08
1.0002e-08
1.00019e-08
1.00018e-08
1.00018e-08
1.00018e-08
1.00017e-08
1.00017e-08
1.00016e-08
1.00018e-08
1.00017e-08
1.00022e-08
1.00021e-08
1.00032e-08
1.00032e-08
1.0002e-08
1.00021e-08
1.00015e-08
1.00015e-08
1.00013e-08
1.00011e-08
1.00011e-08
1.00011e-08
1.00011e-08
1.00011e-08
1.00011e-08
1.00011e-08
1.00011e-08
1.00011e-08
1.0001e-08
1.0001e-08
1.0001e-08
1.0001e-08
1.0001e-08
1.0001e-08
1.0001e-08
1.0001e-08
1.0001e-08
1.00009e-08
1.00009e-08
1.00009e-08
1.00009e-08
1.00009e-08
1.00009e-08
1.00009e-08
1.00009e-08
1.00009e-08
1.00009e-08
1.00008e-08
1.00008e-08
1.00008e-08
1.00008e-08
1.00008e-08
1.00008e-08
1.00008e-08
1.00008e-08
1.00007e-08
1.00007e-08
1.00007e-08
1.00007e-08
1.00007e-08
1.00007e-08
1.00007e-08
1.00007e-08
1.00006e-08
1.00006e-08
1.00006e-08
1.00006e-08
1.00006e-08
1.00006e-08
1.00006e-08
1.00006e-08
1.00005e-08
1.00005e-08
1.00005e-08
1.00005e-08
1.00005e-08
1.00005e-08
1.00004e-08
1.00004e-08
1.00004e-08
1.00004e-08
1.00004e-08
1.00004e-08
1.00003e-08
1.00003e-08
1.00003e-08
1.00003e-08
1.00003e-08
1.00003e-08
1.00003e-08
1.00002e-08
1.00002e-08
1.00002e-08
1.00002e-08
1.00002e-08
1.00002e-08
1.00002e-08
1.00001e-08
1.00001e-08
1.00001e-08
1.00001e-08
1.00001e-08
1.00001e-08
1.00001e-08
1e-08
1e-08
1e-08
1e-08
9.99999e-09
9.99998e-09
9.99996e-09
9.99995e-09
9.99994e-09
9.99993e-09
9.99992e-09
9.99991e-09
9.99989e-09
9.99988e-09
9.99988e-09
9.99987e-09
9.99986e-09
9.99985e-09
9.99984e-09
9.99983e-09
9.99982e-09
9.99981e-09
9.9998e-09
9.99979e-09
9.99978e-09
9.99977e-09
9.99976e-09
9.99975e-09
9.99975e-09
9.99974e-09
9.99973e-09
9.99972e-09
9.99972e-09
9.99971e-09