/*--------------------------------*- C++ -*----------------------------------*\
| =========                 |                                                 |
| \\      /  F ield         | OpenFOAM: The Open Source CFD Toolbox           |
|  \\    /   O peration     | Version:  v2006                                 |
|   \\  /    A nd           | Website:  www.openfoam.com                      |
|    \\/     M anipulation  |                                                 |
\*---------------------------------------------------------------------------*/
FoamFile
{
    version     2.0;
    format      ascii;
    class       volScalarField;
    location    "0.6";
    object      nut;
}
// * * * * * * * * * * * * * * * * * * * * * * * * * * * * * * * * * * * * * //

dimensions      [0 2 -1 0 0 0 0];


internalField   nonuniform List<scalar> 
33000
(
5.31494e-09
3.31215e-09
3.94601e-09
3.99101e-09
4.04392e-09
4.09198e-09
4.14221e-09
4.19706e-09
4.25632e-09
4.31997e-09
4.38705e-09
4.45728e-09
4.53169e-09
4.61077e-09
4.6952e-09
4.78478e-09
4.87899e-09
4.97556e-09
5.07558e-09
5.18088e-09
5.29176e-09
5.40797e-09
5.53023e-09
5.65824e-09
5.79222e-09
5.93283e-09
6.08023e-09
6.23421e-09
6.39577e-09
6.56555e-09
6.74341e-09
6.92452e-09
7.11448e-09
7.31418e-09
7.52448e-09
7.74847e-09
7.98403e-09
8.23161e-09
8.49145e-09
8.7632e-09
9.04945e-09
9.35e-09
9.6575e-09
9.97911e-09
1.03161e-08
1.06652e-08
1.10317e-08
1.14184e-08
1.18235e-08
1.22527e-08
1.27094e-08
1.31881e-08
1.36967e-08
1.42433e-08
1.4834e-08
1.50196e-08
1.49507e-08
1.48828e-08
1.48155e-08
1.47488e-08
1.46828e-08
1.46171e-08
1.45519e-08
1.44869e-08
1.4422e-08
1.43574e-08
1.42936e-08
1.42333e-08
1.41743e-08
1.41136e-08
1.40498e-08
1.39817e-08
1.39072e-08
1.38229e-08
1.37233e-08
1.36005e-08
1.34257e-08
1.33945e-08
1.27697e-08
1.2802e-08
1.26581e-08
1.26867e-08
1.26709e-08
1.26542e-08
1.26761e-08
1.26751e-08
1.2657e-08
1.26487e-08
1.26415e-08
1.26363e-08
1.2629e-08
1.26262e-08
1.26229e-08
1.26187e-08
1.26151e-08
1.26103e-08
1.26056e-08
1.2598e-08
1.2595e-08
1.25796e-08
1.25763e-08
1.25686e-08
1.25648e-08
1.25594e-08
1.25538e-08
1.25488e-08
1.2543e-08
1.25366e-08
1.25303e-08
1.25238e-08
1.25172e-08
1.25103e-08
1.25032e-08
1.24955e-08
1.24882e-08
1.2477e-08
1.24731e-08
1.24499e-08
1.24462e-08
1.24366e-08
1.24324e-08
1.24268e-08
1.24211e-08
1.24163e-08
1.24108e-08
1.2405e-08
1.23993e-08
1.23936e-08
1.23878e-08
1.2382e-08
1.23762e-08
1.23704e-08
1.23646e-08
1.23587e-08
1.23529e-08
1.23471e-08
1.23414e-08
1.23357e-08
1.233e-08
1.23243e-08
1.23187e-08
1.23131e-08
1.23076e-08
1.23021e-08
1.22967e-08
1.22913e-08
1.22859e-08
1.22806e-08
1.22754e-08
1.22702e-08
1.2265e-08
1.22599e-08
1.22549e-08
1.22499e-08
1.22449e-08
1.224e-08
1.22351e-08
1.22303e-08
1.22256e-08
1.22209e-08
1.22163e-08
1.22117e-08
1.22071e-08
1.22027e-08
1.21982e-08
1.21939e-08
1.21896e-08
1.21853e-08
1.21811e-08
1.2177e-08
1.21729e-08
1.21689e-08
1.21649e-08
1.2161e-08
1.21571e-08
1.21533e-08
1.21496e-08
1.21459e-08
1.21423e-08
1.21387e-08
1.21351e-08
1.21316e-08
1.21282e-08
1.21248e-08
1.21215e-08
1.21182e-08
1.2115e-08
1.21119e-08
1.21087e-08
1.21057e-08
1.21027e-08
1.20997e-08
1.20968e-08
1.2094e-08
1.20912e-08
1.20884e-08
1.20857e-08
1.20831e-08
1.20805e-08
1.20779e-08
1.20754e-08
1.20729e-08
1.20705e-08
1.20681e-08
1.20658e-08
1.20635e-08
1.20612e-08
1.2059e-08
1.20568e-08
1.20547e-08
1.20527e-08
1.20507e-08
1.20487e-08
1.20468e-08
1.20449e-08
1.2043e-08
1.20411e-08
1.20393e-08
1.20375e-08
1.20358e-08
1.20341e-08
1.20324e-08
1.20308e-08
1.20292e-08
1.20276e-08
1.2026e-08
1.20245e-08
1.2023e-08
1.20215e-08
1.20201e-08
1.20186e-08
1.20173e-08
1.20159e-08
1.20146e-08
1.20133e-08
1.2012e-08
1.20108e-08
1.20096e-08
1.20084e-08
1.20072e-08
1.2006e-08
1.20049e-08
1.20038e-08
1.20028e-08
1.20017e-08
1.20007e-08
1.19997e-08
1.19987e-08
1.19977e-08
1.19967e-08
1.19958e-08
1.19948e-08
1.19939e-08
1.1993e-08
1.19922e-08
1.19913e-08
1.19905e-08
1.19896e-08
1.19889e-08
1.19881e-08
1.19873e-08
1.19866e-08
1.19858e-08
1.19851e-08
1.19844e-08
1.19837e-08
1.1983e-08
1.19823e-08
1.19817e-08
1.1981e-08
1.19804e-08
1.19798e-08
1.19792e-08
1.19787e-08
1.19781e-08
1.19776e-08
1.1977e-08
1.19765e-08
1.1976e-08
1.19755e-08
1.1975e-08
1.19745e-08
1.1974e-08
1.19735e-08
1.1973e-08
1.19725e-08
1.19721e-08
1.19717e-08
1.19712e-08
1.19708e-08
1.19704e-08
1.19701e-08
1.19697e-08
1.19693e-08
1.1969e-08
1.19686e-08
1.19683e-08
1.1968e-08
1.19676e-08
1.19673e-08
1.1967e-08
1.19667e-08
1.19664e-08
1.19661e-08
1.19658e-08
1.19655e-08
1.19652e-08
1.1965e-08
1.19647e-08
1.19645e-08
1.19643e-08
1.19641e-08
1.19638e-08
1.19636e-08
1.19634e-08
1.19632e-08
1.19629e-08
1.19627e-08
1.19625e-08
1.19623e-08
1.19621e-08
1.19619e-08
1.19617e-08
1.19616e-08
1.19614e-08
1.19613e-08
1.19612e-08
1.1961e-08
1.19609e-08
1.19607e-08
1.19606e-08
1.19604e-08
1.19603e-08
1.19601e-08
1.196e-08
1.19599e-08
1.19598e-08
1.19598e-08
1.19597e-08
1.19596e-08
1.19595e-08
1.19594e-08
1.19593e-08
1.19592e-08
1.19591e-08
1.1959e-08
1.19589e-08
1.19588e-08
1.19588e-08
1.19587e-08
1.19586e-08
1.19585e-08
1.19585e-08
1.19584e-08
1.19583e-08
1.19582e-08
1.19581e-08
1.1958e-08
1.19579e-08
1.19578e-08
1.19578e-08
1.19577e-08
1.19576e-08
1.19576e-08
1.19575e-08
1.19575e-08
1.19574e-08
1.19573e-08
1.19573e-08
1.19572e-08
1.19571e-08
1.19571e-08
1.19571e-08
1.1957e-08
1.1957e-08
1.19569e-08
1.19569e-08
1.19568e-08
1.19568e-08
1.19568e-08
1.19567e-08
1.19567e-08
1.19567e-08
1.19566e-08
1.19566e-08
1.19566e-08
1.19566e-08
1.19565e-08
1.19565e-08
1.19564e-08
1.19564e-08
1.19564e-08
1.19563e-08
1.19563e-08
1.19562e-08
1.19562e-08
1.19561e-08
1.19561e-08
1.1956e-08
1.19559e-08
1.19559e-08
1.19558e-08
1.19558e-08
1.19557e-08
1.19557e-08
1.19556e-08
1.19556e-08
1.19556e-08
1.19555e-08
1.19555e-08
1.19554e-08
1.19554e-08
1.19554e-08
1.19553e-08
1.19553e-08
1.19553e-08
1.19553e-08
1.19553e-08
1.19552e-08
1.19552e-08
1.19552e-08
1.19552e-08
1.19552e-08
1.19552e-08
1.19551e-08
1.19551e-08
1.19551e-08
1.1955e-08
1.1955e-08
1.1955e-08
1.1955e-08
1.1955e-08
1.19549e-08
1.19549e-08
1.19549e-08
1.19549e-08
1.19549e-08
1.19549e-08
1.19549e-08
1.19549e-08
1.19549e-08
1.19549e-08
1.19549e-08
1.19548e-08
1.19548e-08
1.19548e-08
1.19548e-08
1.19549e-08
1.19549e-08
1.19549e-08
1.19549e-08
1.1955e-08
1.1955e-08
1.1955e-08
1.1955e-08
1.1955e-08
1.19551e-08
1.19551e-08
1.19551e-08
1.19551e-08
1.19551e-08
1.19551e-08
1.19551e-08
1.19551e-08
1.19551e-08
1.19551e-08
1.19551e-08
1.19551e-08
1.1955e-08
1.19555e-08
1.19554e-08
1.19553e-08
1.19553e-08
1.19552e-08
1.19552e-08
1.19551e-08
1.1955e-08
1.1955e-08
1.19549e-08
1.1955e-08
1.1955e-08
1.19551e-08
1.19552e-08
1.19553e-08
1.19554e-08
1.19555e-08
1.19556e-08
1.19557e-08
1.19558e-08
1.19558e-08
1.19559e-08
1.1956e-08
1.1956e-08
1.19561e-08
1.19562e-08
1.19563e-08
1.19564e-08
1.19564e-08
1.19565e-08
1.19566e-08
1.19566e-08
1.19566e-08
1.19566e-08
1.19565e-08
1.19564e-08
1.19563e-08
1.19562e-08
1.19561e-08
1.1956e-08
1.19558e-08
1.19557e-08
1.19557e-08
1.19556e-08
1.19555e-08
1.19555e-08
1.19555e-08
1.19554e-08
1.19554e-08
1.19553e-08
1.19553e-08
1.19553e-08
1.19554e-08
1.19554e-08
1.19555e-08
1.19554e-08
1.19554e-08
1.19554e-08
1.19554e-08
1.19555e-08
1.19555e-08
1.19554e-08
1.19553e-08
1.19551e-08
1.1955e-08
1.1955e-08
1.1955e-08
1.19549e-08
1.19549e-08
1.19548e-08
1.19549e-08
1.19548e-08
1.19548e-08
1.19549e-08
1.19551e-08
1.19552e-08
1.19551e-08
1.1955e-08
1.1955e-08
1.19549e-08
1.1964e-08
5.95705e-09
5.60643e-09
2.686e-08
7.83995e-08
7.01946e-08
6.92539e-08
6.65835e-08
6.44086e-08
6.28237e-08
6.16204e-08
6.0551e-08
5.95208e-08
5.86625e-08
5.79883e-08
5.74135e-08
5.68678e-08
5.63309e-08
5.58689e-08
5.5493e-08
5.52015e-08
5.50115e-08
5.49182e-08
5.49031e-08
5.49632e-08
5.50937e-08
5.53154e-08
5.55894e-08
5.58865e-08
5.62242e-08
5.66311e-08
5.71089e-08
5.76691e-08
5.83062e-08
5.901e-08
5.97799e-08
6.05732e-08
6.13697e-08
6.22128e-08
6.3067e-08
6.39484e-08
6.49176e-08
6.60172e-08
6.72785e-08
6.87008e-08
7.02394e-08
7.18748e-08
7.35778e-08
7.53042e-08
7.70027e-08
7.86619e-08
8.02723e-08
8.18307e-08
8.33806e-08
8.49735e-08
8.66592e-08
8.85068e-08
9.05339e-08
9.28121e-08
9.5415e-08
9.83431e-08
1.01503e-07
1.04857e-07
1.0837e-07
1.11998e-07
1.15625e-07
1.192e-07
1.22738e-07
1.26298e-07
1.29942e-07
1.33673e-07
1.37405e-07
1.41106e-07
1.4441e-07
1.47296e-07
1.51086e-07
1.60262e-07
1.81733e-07
2.53318e-07
1.39698e-07
1.78461e-07
6.7184e-08
7.35174e-08
1.59438e-07
1.83367e-07
5.13066e-07
6.41145e-07
4.60062e-07
4.00101e-07
4.43848e-07
7.25324e-07
6.88714e-07
7.2572e-07
7.27362e-07
6.66907e-07
6.59812e-07
7.56609e-07
7.76295e-07
7.98215e-07
7.86799e-07
8.55334e-07
9.38563e-07
1.18793e-06
1.2876e-06
1.12876e-06
1.18447e-06
1.14652e-06
1.19431e-06
1.25777e-06
1.24132e-06
1.31e-06
1.49383e-06
1.59099e-06
1.67137e-06
1.7249e-06
1.77132e-06
1.52025e-06
1.44278e-06
1.71252e-06
2.22517e-06
1.742e-06
1.80932e-06
2.91216e-06
2.67795e-06
2.59412e-06
2.4986e-06
2.58147e-06
2.6442e-06
2.90308e-06
2.90021e-06
2.89312e-06
2.88792e-06
2.88136e-06
2.87465e-06
2.86934e-06
2.86315e-06
2.85678e-06
2.85043e-06
2.8439e-06
2.83714e-06
2.83087e-06
2.82419e-06
2.81729e-06
2.81035e-06
2.80404e-06
2.79717e-06
2.78983e-06
2.78368e-06
2.77763e-06
2.77123e-06
2.76479e-06
2.75907e-06
2.75341e-06
2.74733e-06
2.74178e-06
2.73655e-06
2.73072e-06
2.72447e-06
2.7194e-06
2.71462e-06
2.71016e-06
2.7058e-06
2.70179e-06
2.69796e-06
2.69426e-06
2.6903e-06
2.68636e-06
2.68294e-06
2.68073e-06
2.67826e-06
2.67689e-06
2.67676e-06
2.6769e-06
2.67754e-06
2.67811e-06
2.67888e-06
2.68043e-06
2.68175e-06
2.68293e-06
2.68427e-06
2.68568e-06
2.68693e-06
2.68816e-06
2.6896e-06
2.69115e-06
2.69255e-06
2.69383e-06
2.69518e-06
2.69657e-06
2.69789e-06
2.69914e-06
2.70044e-06
2.70187e-06
2.70333e-06
2.70472e-06
2.70601e-06
2.70728e-06
2.70855e-06
2.70977e-06
2.71096e-06
2.71215e-06
2.71332e-06
2.71446e-06
2.71561e-06
2.71677e-06
2.71792e-06
2.71911e-06
2.72035e-06
2.72158e-06
2.72281e-06
2.72411e-06
2.72539e-06
2.72645e-06
2.72733e-06
2.72822e-06
2.72914e-06
2.72996e-06
2.7307e-06
2.73153e-06
2.73252e-06
2.73346e-06
2.73428e-06
2.7351e-06
2.73599e-06
2.73681e-06
2.73748e-06
2.73813e-06
2.7389e-06
2.73973e-06
2.74053e-06
2.7413e-06
2.74209e-06
2.74287e-06
2.74361e-06
2.74434e-06
2.74506e-06
2.74573e-06
2.74633e-06
2.74691e-06
2.74757e-06
2.74831e-06
2.74905e-06
2.74973e-06
2.75032e-06
2.75083e-06
2.75127e-06
2.75172e-06
2.75222e-06
2.75275e-06
2.75322e-06
2.75356e-06
2.75392e-06
2.75444e-06
2.75508e-06
2.75565e-06
2.75604e-06
2.75636e-06
2.75683e-06
2.75747e-06
2.75811e-06
2.75859e-06
2.75889e-06
2.75914e-06
2.75939e-06
2.75965e-06
2.75992e-06
2.76025e-06
2.76062e-06
2.76098e-06
2.76137e-06
2.76183e-06
2.76234e-06
2.7628e-06
2.76314e-06
2.76341e-06
2.76366e-06
2.76387e-06
2.76406e-06
2.76422e-06
2.76437e-06
2.76448e-06
2.76457e-06
2.76469e-06
2.76491e-06
2.76521e-06
2.76554e-06
2.76586e-06
2.76617e-06
2.7665e-06
2.76686e-06
2.76722e-06
2.76756e-06
2.76787e-06
2.76814e-06
2.76835e-06
2.76849e-06
2.76858e-06
2.76867e-06
2.76879e-06
2.76893e-06
2.76909e-06
2.76924e-06
2.76939e-06
2.76957e-06
2.76981e-06
2.7701e-06
2.77043e-06
2.77074e-06
2.77103e-06
2.77125e-06
2.77142e-06
2.77152e-06
2.77157e-06
2.77157e-06
2.77155e-06
2.77155e-06
2.77158e-06
2.77167e-06
2.77181e-06
2.77202e-06
2.77226e-06
2.77252e-06
2.77279e-06
2.77307e-06
2.77335e-06
2.7736e-06
2.77374e-06
2.77373e-06
2.77361e-06
2.7735e-06
2.77348e-06
2.77354e-06
2.77363e-06
2.77376e-06
2.774e-06
2.77437e-06
2.77478e-06
2.77508e-06
2.7752e-06
2.77524e-06
2.77526e-06
2.77524e-06
2.77511e-06
2.77492e-06
2.77478e-06
2.77476e-06
2.77481e-06
2.77491e-06
2.77505e-06
2.77525e-06
2.77543e-06
2.77554e-06
2.77557e-06
2.77553e-06
2.77541e-06
2.77524e-06
2.77509e-06
2.77504e-06
2.7751e-06
2.77521e-06
2.77536e-06
2.77555e-06
2.77573e-06
2.77583e-06
2.77579e-06
2.77565e-06
2.7755e-06
2.77537e-06
2.77529e-06
2.77528e-06
2.77537e-06
2.77555e-06
2.77577e-06
2.77593e-06
2.77602e-06
2.77605e-06
2.77606e-06
2.77608e-06
2.77608e-06
2.77611e-06
2.77622e-06
2.77644e-06
2.7767e-06
2.77689e-06
2.77695e-06
2.77688e-06
2.77672e-06
2.77657e-06
2.77651e-06
2.77656e-06
2.77669e-06
2.77685e-06
2.77698e-06
2.777e-06
2.77689e-06
2.77671e-06
2.7765e-06
2.77634e-06
2.77631e-06
2.77645e-06
2.7767e-06
2.77692e-06
2.777e-06
2.77699e-06
2.77696e-06
2.77693e-06
2.77692e-06
2.77701e-06
2.77718e-06
2.77729e-06
2.77727e-06
2.77717e-06
2.77708e-06
2.77709e-06
2.7772e-06
2.77731e-06
2.77739e-06
2.77744e-06
2.77741e-06
2.77737e-06
2.77739e-06
2.77745e-06
2.7773e-06
2.77704e-06
2.7769e-06
2.77678e-06
2.77692e-06
2.77711e-06
2.77716e-06
2.77717e-06
2.77709e-06
2.77723e-06
2.77745e-06
2.77772e-06
2.77772e-06
2.77768e-06
2.77752e-06
2.7773e-06
2.77746e-06
2.77736e-06
2.77761e-06
2.77748e-06
2.77679e-06
2.77682e-06
2.77687e-06
2.7773e-06
2.77706e-06
2.77707e-06
2.77746e-06
2.77749e-06
2.7776e-06
2.77745e-06
2.77756e-06
2.7774e-06
2.77732e-06
2.77688e-06
2.7773e-06
2.77763e-06
2.77723e-06
2.77765e-06
2.77777e-06
2.77756e-06
2.77766e-06
2.77737e-06
2.77769e-06
2.77699e-06
2.77791e-06
2.77772e-06
2.77719e-06
2.77693e-06
2.77631e-06
2.77594e-06
2.77697e-06
2.77612e-06
2.7761e-06
2.77624e-06
2.77587e-06
2.77536e-06
2.77507e-06
2.77493e-06
2.77482e-06
2.77501e-06
2.7756e-06
2.77625e-06
2.77649e-06
2.77636e-06
2.77628e-06
2.7765e-06
2.77697e-06
2.77734e-06
2.77751e-06
2.77744e-06
2.77712e-06
2.77662e-06
2.77615e-06
2.77572e-06
2.77545e-06
2.77535e-06
2.77542e-06
2.77572e-06
2.77631e-06
2.7772e-06
2.77787e-06
2.7779e-06
2.77791e-06
2.77792e-06
2.77792e-06
2.77792e-06
2.77792e-06
2.77792e-06
2.77792e-06
2.77791e-06
2.7779e-06
2.77784e-06
2.77773e-06
2.77746e-06
2.77716e-06
2.77719e-06
2.77749e-06
2.77769e-06
2.77776e-06
2.77782e-06
2.77785e-06
2.77782e-06
2.77774e-06
2.77753e-06
2.77702e-06
2.77758e-06
2.77774e-06
2.7778e-06
2.77767e-06
2.77534e-06
2.77322e-06
2.77415e-06
2.77704e-06
2.77754e-06
2.77549e-06
2.77307e-06
2.77446e-06
2.77763e-06
2.77776e-06
2.77755e-06
2.77745e-06
2.77783e-06
2.77792e-06
2.77762e-06
2.77544e-06
2.7765e-06
2.77333e-06
2.77325e-06
2.79804e-06
5.95123e-09
5.60617e-09
2.60899e-08
7.5701e-08
6.85405e-08
6.7933e-08
6.56004e-08
6.38283e-08
6.2461e-08
6.11973e-08
5.99503e-08
5.88266e-08
5.79188e-08
5.719e-08
5.65075e-08
5.58514e-08
5.52403e-08
5.47629e-08
5.4433e-08
5.4211e-08
5.40617e-08
5.39752e-08
5.39483e-08
5.40114e-08
5.41715e-08
5.43685e-08
5.45813e-08
5.48751e-08
5.52523e-08
5.56584e-08
5.61106e-08
5.66528e-08
5.73026e-08
5.80475e-08
5.88546e-08
5.96779e-08
6.05607e-08
6.14856e-08
6.24196e-08
6.33821e-08
6.43919e-08
6.54737e-08
6.67315e-08
6.80981e-08
6.95665e-08
7.11431e-08
7.28221e-08
7.45171e-08
7.61813e-08
7.78201e-08
7.94195e-08
8.09787e-08
8.25587e-08
8.42162e-08
8.60223e-08
8.79876e-08
9.02752e-08
9.28979e-08
9.58156e-08
9.89464e-08
1.02336e-07
1.05834e-07
1.09371e-07
1.12909e-07
1.16348e-07
1.19673e-07
1.2296e-07
1.26339e-07
1.2988e-07
1.33684e-07
1.37987e-07
1.43079e-07
1.49186e-07
1.56963e-07
1.67715e-07
1.83277e-07
2.06317e-07
2.21002e-07
2.13277e-07
3.03373e-07
2.40751e-07
1.53257e-07
1.93757e-07
7.54771e-08
8.24715e-08
1.9326e-07
2.43905e-07
2.02064e-07
5.52227e-07
5.64153e-07
4.38507e-07
4.03549e-07
7.55849e-07
7.22686e-07
7.4722e-07
7.4658e-07
7.13719e-07
7.0944e-07
7.87917e-07
8.15749e-07
8.89595e-07
9.36794e-07
1.03374e-06
1.08263e-06
1.37851e-06
1.4971e-06
1.23853e-06
1.38891e-06
1.31508e-06
1.36454e-06
1.38544e-06
1.41673e-06
1.46626e-06
1.64904e-06
1.6863e-06
1.64005e-06
1.43099e-06
1.55146e-06
1.73724e-06
1.99303e-06
2.35523e-06
2.78538e-06
1.68003e-06
1.63406e-06
2.95168e-06
2.69748e-06
3.01696e-06
2.84658e-06
3.39204e-06
3.48879e-06
5.45999e-06
6.49255e-06
6.54458e-06
7.44827e-06
8.86353e-06
9.93394e-06
9.93395e-06
9.93406e-06
9.93398e-06
9.93391e-06
9.93378e-06
9.93355e-06
9.93326e-06
9.93298e-06
9.93265e-06
9.47116e-06
8.71868e-06
8.0969e-06
7.52712e-06
7.02001e-06
6.61973e-06
6.305e-06
6.03714e-06
5.79517e-06
5.57961e-06
5.39525e-06
5.23436e-06
5.07768e-06
4.9218e-06
4.78053e-06
4.664e-06
4.56552e-06
4.47597e-06
4.39726e-06
4.33562e-06
4.28436e-06
4.22957e-06
4.17213e-06
4.12e-06
4.07467e-06
4.03596e-06
4.00435e-06
3.98087e-06
3.96543e-06
3.95561e-06
3.94775e-06
3.9374e-06
3.92359e-06
3.91307e-06
3.91115e-06
3.91355e-06
3.9157e-06
3.9224e-06
3.93743e-06
3.95335e-06
3.96286e-06
3.96984e-06
3.97898e-06
3.98577e-06
3.98578e-06
3.98603e-06
3.99724e-06
4.01958e-06
4.04553e-06
4.07335e-06
4.10601e-06
4.13853e-06
4.16255e-06
4.18235e-06
4.2095e-06
4.24584e-06
4.28641e-06
4.33149e-06
4.38322e-06
4.43688e-06
4.48592e-06
4.53012e-06
4.57079e-06
4.60615e-06
4.63891e-06
4.67889e-06
4.73229e-06
4.79587e-06
4.86425e-06
4.93624e-06
5.00986e-06
5.07891e-06
5.13929e-06
5.19393e-06
5.24834e-06
5.30521e-06
5.36816e-06
5.444e-06
5.53467e-06
5.63211e-06
5.72613e-06
5.81407e-06
5.89803e-06
5.97752e-06
6.0518e-06
6.12415e-06
6.19996e-06
6.28561e-06
6.38845e-06
6.51212e-06
6.65041e-06
6.79007e-06
6.91982e-06
7.03472e-06
7.13399e-06
7.22102e-06
7.30447e-06
7.39282e-06
7.4863e-06
7.57901e-06
7.67138e-06
7.77927e-06
7.92221e-06
8.10014e-06
8.28596e-06
8.45023e-06
8.59496e-06
8.7504e-06
8.93e-06
9.10003e-06
9.21273e-06
9.27296e-06
9.34011e-06
9.4647e-06
9.64304e-06
9.84169e-06
9.8998e-06
9.89982e-06
9.89985e-06
9.89987e-06
9.8999e-06
9.89993e-06
9.89996e-06
9.9e-06
9.90003e-06
9.90007e-06
9.9001e-06
9.90013e-06
9.90016e-06
9.90018e-06
9.9002e-06
9.90021e-06
9.90023e-06
9.90024e-06
9.90025e-06
9.90027e-06
9.90028e-06
9.9003e-06
9.90032e-06
9.90035e-06
9.90038e-06
9.90041e-06
9.90043e-06
9.90046e-06
9.90049e-06
9.90052e-06
9.90055e-06
9.90057e-06
9.90059e-06
9.9006e-06
9.90061e-06
9.90062e-06
9.90064e-06
9.90065e-06
9.90066e-06
9.90068e-06
9.90069e-06
9.90071e-06
9.90073e-06
9.90075e-06
9.90078e-06
9.9008e-06
9.90082e-06
9.90084e-06
9.90086e-06
9.90087e-06
9.90087e-06
9.90088e-06
9.90088e-06
9.90088e-06
9.90089e-06
9.9009e-06
9.90091e-06
9.90093e-06
9.90095e-06
9.90097e-06
9.901e-06
9.90102e-06
9.90103e-06
9.90105e-06
9.90106e-06
9.90107e-06
9.90106e-06
9.90106e-06
9.90106e-06
9.90106e-06
9.90108e-06
9.90109e-06
9.90111e-06
9.90113e-06
9.90116e-06
9.90119e-06
9.9012e-06
9.9012e-06
9.9012e-06
9.9012e-06
9.9012e-06
9.90118e-06
9.90118e-06
9.90118e-06
9.90118e-06
9.90119e-06
9.9012e-06
9.90121e-06
9.90123e-06
9.90123e-06
9.90123e-06
9.90123e-06
9.90122e-06
9.90121e-06
9.9012e-06
9.9012e-06
9.90121e-06
9.90122e-06
9.90123e-06
9.90125e-06
9.90126e-06
9.90126e-06
9.90126e-06
9.90125e-06
9.90124e-06
9.90123e-06
9.90123e-06
9.90123e-06
9.90124e-06
9.90125e-06
9.90127e-06
9.90128e-06
9.90129e-06
9.90129e-06
9.90129e-06
9.90129e-06
9.9013e-06
9.9013e-06
9.90131e-06
9.90133e-06
9.90135e-06
9.90136e-06
9.90136e-06
9.90135e-06
9.90135e-06
9.90134e-06
9.90134e-06
9.90135e-06
9.90136e-06
9.90137e-06
9.90137e-06
9.90137e-06
9.90136e-06
9.90135e-06
9.90134e-06
9.90133e-06
9.90133e-06
9.90134e-06
9.90136e-06
9.90137e-06
9.90137e-06
9.90137e-06
9.90138e-06
9.90138e-06
9.90138e-06
9.90139e-06
9.90139e-06
9.9014e-06
9.9014e-06
9.90139e-06
9.90139e-06
9.9014e-06
9.90141e-06
9.90141e-06
9.90142e-06
9.90142e-06
9.90142e-06
9.90141e-06
9.90141e-06
9.90142e-06
9.90141e-06
9.90139e-06
9.90138e-06
9.90137e-06
9.90138e-06
9.9014e-06
9.9014e-06
9.9014e-06
9.90139e-06
9.9014e-06
9.90142e-06
9.90144e-06
9.90144e-06
9.90144e-06
9.90142e-06
9.90141e-06
9.90142e-06
9.90141e-06
9.90143e-06
9.90141e-06
9.90136e-06
9.90137e-06
9.90137e-06
9.90141e-06
9.90139e-06
9.90139e-06
9.90142e-06
9.90142e-06
9.90142e-06
9.90141e-06
9.90142e-06
9.90141e-06
9.9014e-06
9.90139e-06
9.90141e-06
9.90143e-06
9.90141e-06
9.90143e-06
9.90144e-06
9.90142e-06
9.90142e-06
9.90139e-06
9.90143e-06
9.9014e-06
9.90142e-06
9.90138e-06
9.90136e-06
9.90134e-06
9.90125e-06
9.9013e-06
9.90135e-06
9.90127e-06
9.90126e-06
9.90126e-06
9.90121e-06
9.90119e-06
9.9012e-06
9.9012e-06
9.90118e-06
9.9012e-06
9.90124e-06
9.90127e-06
9.90128e-06
9.90128e-06
9.90128e-06
9.90132e-06
9.90136e-06
9.9014e-06
9.90141e-06
9.9014e-06
9.90137e-06
9.90133e-06
9.90129e-06
9.90126e-06
9.90125e-06
9.90126e-06
9.90128e-06
9.90131e-06
9.90136e-06
9.90143e-06
9.90146e-06
9.90146e-06
9.90147e-06
9.90147e-06
9.90147e-06
9.90147e-06
9.90147e-06
9.90147e-06
9.90147e-06
9.90147e-06
9.90146e-06
9.90146e-06
9.90144e-06
9.90143e-06
9.90141e-06
9.90142e-06
9.90143e-06
9.90144e-06
9.90145e-06
9.90145e-06
9.90146e-06
9.90145e-06
9.90145e-06
9.90143e-06
9.90141e-06
9.90143e-06
9.90145e-06
9.90145e-06
9.90142e-06
9.9012e-06
9.90112e-06
9.90126e-06
9.90141e-06
9.90139e-06
9.90118e-06
9.90109e-06
9.9013e-06
9.90144e-06
9.90144e-06
9.90139e-06
9.90143e-06
9.90145e-06
9.90146e-06
9.9014e-06
9.90128e-06
9.90132e-06
9.90114e-06
9.90125e-06
9.9029e-06
5.9157e-09
5.57068e-09
2.57658e-08
7.27257e-08
6.59605e-08
6.56824e-08
6.40227e-08
6.25988e-08
6.12965e-08
6.00322e-08
5.88049e-08
5.77604e-08
5.68813e-08
5.60624e-08
5.52491e-08
5.44987e-08
5.39047e-08
5.3467e-08
5.31667e-08
5.29575e-08
5.28044e-08
5.27174e-08
5.27079e-08
5.27793e-08
5.29215e-08
5.31122e-08
5.33711e-08
5.36837e-08
5.40289e-08
5.44148e-08
5.48531e-08
5.53682e-08
5.59882e-08
5.67262e-08
5.75759e-08
5.85362e-08
5.96231e-08
6.07635e-08
6.19574e-08
6.31507e-08
6.43169e-08
6.54829e-08
6.66851e-08
6.7853e-08
6.9077e-08
7.03481e-08
7.16714e-08
7.30578e-08
7.45053e-08
7.60601e-08
7.77142e-08
7.94527e-08
8.132e-08
8.33463e-08
8.55492e-08
8.78981e-08
9.0508e-08
9.32969e-08
9.62622e-08
9.93427e-08
1.0255e-07
1.05814e-07
1.09124e-07
1.12433e-07
1.15725e-07
1.19055e-07
1.22446e-07
1.26014e-07
1.29869e-07
1.34132e-07
1.39096e-07
1.45134e-07
1.52809e-07
1.62528e-07
1.74738e-07
1.90022e-07
2.0646e-07
2.22923e-07
2.36526e-07
2.3507e-07
2.0394e-07
1.77905e-07
2.5788e-07
2.2578e-07
1.79509e-07
2.15955e-07
2.62502e-07
9.80323e-08
1.09042e-07
2.28683e-07
2.72092e-07
5.63884e-07
6.12222e-07
4.4314e-07
4.32303e-07
9.15924e-07
8.78719e-07
8.44036e-07
8.25143e-07
7.91549e-07
7.87027e-07
8.85798e-07
9.11064e-07
9.61091e-07
1.04064e-06
1.09799e-06
1.26335e-06
1.26261e-06
1.68353e-06
1.76717e-06
1.56234e-06
1.59968e-06
1.51463e-06
1.52162e-06
1.54497e-06
1.55396e-06
1.70096e-06
1.82562e-06
1.90433e-06
1.68881e-06
1.85779e-06
2.00354e-06
2.34288e-06
2.44445e-06
2.85086e-06
1.53271e-06
1.48994e-06
2.80067e-06
2.55579e-06
3.34391e-06
3.08874e-06
4.41587e-06
4.5906e-06
7.31149e-06
9.92817e-06
9.99748e-06
9.23846e-06
9.48085e-06
9.99781e-06
9.99788e-06
9.99793e-06
9.998e-06
9.99806e-06
9.88698e-06
9.26217e-06
8.58064e-06
8.01239e-06
7.5405e-06
7.09165e-06
6.68746e-06
6.36377e-06
6.09394e-06
5.85849e-06
5.64261e-06
5.44087e-06
5.25759e-06
5.09347e-06
4.9386e-06
4.79514e-06
4.67855e-06
4.59191e-06
4.51603e-06
4.43543e-06
4.35562e-06
4.28916e-06
4.23174e-06
4.16976e-06
4.11319e-06
4.0748e-06
4.0458e-06
4.01294e-06
3.98076e-06
3.96017e-06
3.945e-06
3.92493e-06
3.90559e-06
3.89432e-06
3.88668e-06
3.88005e-06
3.88033e-06
3.88771e-06
3.89493e-06
3.90137e-06
3.91093e-06
3.91989e-06
3.9239e-06
3.92882e-06
3.94068e-06
3.95483e-06
3.96552e-06
3.97735e-06
3.99663e-06
4.01939e-06
4.03601e-06
4.04934e-06
4.07196e-06
4.10432e-06
4.13547e-06
4.16447e-06
4.20064e-06
4.24421e-06
4.28678e-06
4.32795e-06
4.3728e-06
4.41748e-06
4.45434e-06
4.48782e-06
4.52658e-06
4.56772e-06
4.60562e-06
4.64817e-06
4.70684e-06
4.77661e-06
4.84257e-06
4.90252e-06
4.9659e-06
5.03298e-06
5.09486e-06
5.15272e-06
5.21889e-06
5.29757e-06
5.38095e-06
5.46457e-06
5.55159e-06
5.6403e-06
5.72312e-06
5.79924e-06
5.87554e-06
5.95558e-06
6.03775e-06
6.12161e-06
6.20966e-06
6.30479e-06
6.409e-06
6.52162e-06
6.63905e-06
6.75727e-06
6.87463e-06
6.98985e-06
7.09768e-06
7.19243e-06
7.27664e-06
7.36378e-06
7.46838e-06
7.59337e-06
7.72827e-06
7.86136e-06
7.99433e-06
8.14015e-06
8.30075e-06
8.45709e-06
8.59303e-06
8.72055e-06
8.86353e-06
9.01595e-06
9.14164e-06
9.2291e-06
9.32252e-06
9.47238e-06
9.67152e-06
9.87085e-06
9.99962e-06
9.99961e-06
9.99961e-06
9.99961e-06
9.99961e-06
9.99961e-06
9.9996e-06
9.9996e-06
9.9996e-06
9.9996e-06
9.9996e-06
9.9996e-06
9.9996e-06
9.99959e-06
9.99959e-06
9.99959e-06
9.99959e-06
9.99959e-06
9.99959e-06
9.99958e-06
9.99958e-06
9.99958e-06
9.99958e-06
9.99958e-06
9.99958e-06
9.99958e-06
9.99958e-06
9.99958e-06
9.99958e-06
9.99958e-06
9.99958e-06
9.99958e-06
9.99957e-06
9.99957e-06
9.99957e-06
9.99957e-06
9.99957e-06
9.99957e-06
9.99957e-06
9.99957e-06
9.99957e-06
9.99957e-06
9.99957e-06
9.99957e-06
9.99957e-06
9.99957e-06
9.99957e-06
9.99957e-06
9.99957e-06
9.99957e-06
9.99957e-06
9.99957e-06
9.99957e-06
9.99957e-06
9.99957e-06
9.99957e-06
9.99957e-06
9.99957e-06
9.99957e-06
9.99957e-06
9.99957e-06
9.99957e-06
9.99957e-06
9.99957e-06
9.99957e-06
9.99957e-06
9.99957e-06
9.99957e-06
9.99956e-06
9.99956e-06
9.99956e-06
9.99956e-06
9.99956e-06
9.99956e-06
9.99957e-06
9.99957e-06
9.99956e-06
9.99956e-06
9.99956e-06
9.99956e-06
9.99956e-06
9.99956e-06
9.99956e-06
9.99956e-06
9.99956e-06
9.99956e-06
9.99956e-06
9.99956e-06
9.99956e-06
9.99956e-06
9.99956e-06
9.99956e-06
9.99956e-06
9.99956e-06
9.99956e-06
9.99956e-06
9.99956e-06
9.99956e-06
9.99956e-06
9.99956e-06
9.99956e-06
9.99956e-06
9.99956e-06
9.99956e-06
9.99956e-06
9.99956e-06
9.99956e-06
9.99956e-06
9.99956e-06
9.99956e-06
9.99956e-06
9.99956e-06
9.99956e-06
9.99956e-06
9.99956e-06
9.99956e-06
9.99956e-06
9.99956e-06
9.99956e-06
9.99956e-06
9.99956e-06
9.99956e-06
9.99956e-06
9.99956e-06
9.99956e-06
9.99956e-06
9.99956e-06
9.99956e-06
9.99956e-06
9.99956e-06
9.99956e-06
9.99956e-06
9.99956e-06
9.99956e-06
9.99956e-06
9.99956e-06
9.99956e-06
9.99956e-06
9.99956e-06
9.99956e-06
9.99956e-06
9.99956e-06
9.99956e-06
9.99956e-06
9.99956e-06
9.99956e-06
9.99956e-06
9.99956e-06
9.99956e-06
9.99956e-06
9.99956e-06
9.99956e-06
9.99956e-06
9.99956e-06
9.99956e-06
9.99956e-06
9.99955e-06
9.99955e-06
9.99955e-06
9.99955e-06
9.99955e-06
9.99955e-06
9.99955e-06
9.99955e-06
9.99955e-06
9.99955e-06
9.99955e-06
9.99955e-06
9.99955e-06
9.99955e-06
9.99955e-06
9.99956e-06
9.99956e-06
9.99956e-06
9.99955e-06
9.99955e-06
9.99955e-06
9.99955e-06
9.99955e-06
9.99955e-06
9.99955e-06
9.99955e-06
9.99955e-06
9.99955e-06
9.99955e-06
9.99955e-06
9.99955e-06
9.99955e-06
9.99955e-06
9.99955e-06
9.99955e-06
9.99955e-06
9.99955e-06
9.99955e-06
9.99955e-06
9.99955e-06
9.99956e-06
9.99956e-06
9.99956e-06
9.99956e-06
9.99955e-06
9.99955e-06
9.99955e-06
9.99955e-06
9.99955e-06
9.99955e-06
9.99955e-06
9.99955e-06
9.99955e-06
9.99955e-06
9.99955e-06
9.99955e-06
9.99955e-06
9.99955e-06
9.99955e-06
9.99955e-06
9.99955e-06
9.99955e-06
9.99955e-06
9.99955e-06
9.99955e-06
9.99955e-06
9.99955e-06
9.99955e-06
9.99955e-06
9.99955e-06
9.99955e-06
9.99955e-06
9.99955e-06
9.99955e-06
9.99955e-06
9.99955e-06
9.99955e-06
9.99955e-06
9.99955e-06
9.99955e-06
9.99955e-06
9.99955e-06
9.99956e-06
9.99956e-06
9.99956e-06
9.99956e-06
9.99956e-06
9.99956e-06
9.99956e-06
9.99956e-06
9.99956e-06
9.99956e-06
9.99956e-06
9.99956e-06
9.99956e-06
9.99956e-06
9.99956e-06
9.99956e-06
9.99956e-06
9.99956e-06
9.99956e-06
9.99956e-06
9.99956e-06
9.99956e-06
9.99956e-06
9.99956e-06
9.99956e-06
9.99956e-06
9.99956e-06
9.99956e-06
9.99956e-06
9.99956e-06
9.99956e-06
9.99956e-06
9.99956e-06
9.99956e-06
9.99956e-06
9.99956e-06
9.99956e-06
9.99956e-06
9.99956e-06
9.99956e-06
9.99956e-06
9.99956e-06
9.99956e-06
9.99957e-06
9.99956e-06
9.99956e-06
9.99956e-06
9.99956e-06
9.99956e-06
9.99956e-06
9.99957e-06
5.79404e-09
5.54625e-09
2.53269e-08
7.00133e-08
6.38795e-08
6.38442e-08
6.25118e-08
6.12285e-08
6.00071e-08
5.8827e-08
5.76835e-08
5.66434e-08
5.56977e-08
5.48049e-08
5.39837e-08
5.32582e-08
5.27163e-08
5.23174e-08
5.20358e-08
5.18429e-08
5.17231e-08
5.16653e-08
5.16711e-08
5.17536e-08
5.19169e-08
5.21308e-08
5.23986e-08
5.27371e-08
5.31621e-08
5.36144e-08
5.40719e-08
5.45767e-08
5.51353e-08
5.57864e-08
5.65808e-08
5.75166e-08
5.86122e-08
5.98826e-08
6.12066e-08
6.25292e-08
6.38134e-08
6.50116e-08
6.6147e-08
6.72078e-08
6.83093e-08
6.94304e-08
7.0579e-08
7.18973e-08
7.33847e-08
7.50393e-08
7.68635e-08
7.88529e-08
8.09931e-08
8.32718e-08
8.5647e-08
8.81094e-08
9.06837e-08
9.33575e-08
9.60808e-08
9.88549e-08
1.01705e-07
1.04669e-07
1.07797e-07
1.11058e-07
1.14493e-07
1.18211e-07
1.22079e-07
1.26084e-07
1.30374e-07
1.35084e-07
1.40404e-07
1.46574e-07
1.54188e-07
1.63421e-07
1.73789e-07
1.85524e-07
1.97407e-07
2.08025e-07
2.1906e-07
2.3503e-07
2.47879e-07
2.60186e-07
2.50847e-07
2.1116e-07
1.68794e-07
1.94695e-07
2.27591e-07
2.8157e-07
2.25347e-07
2.82836e-07
1.19334e-07
1.33052e-07
2.78895e-07
3.18157e-07
5.95312e-07
5.85381e-07
4.87506e-07
4.59412e-07
1.07605e-06
1.01723e-06
9.18895e-07
9.07585e-07
8.82823e-07
8.66477e-07
1.00699e-06
1.04513e-06
1.13478e-06
1.1738e-06
1.23568e-06
1.39921e-06
1.4823e-06
1.81248e-06
1.90393e-06
1.69951e-06
1.71839e-06
1.61027e-06
1.6019e-06
1.68098e-06
1.75856e-06
2.01546e-06
2.26079e-06
2.36516e-06
2.06035e-06
2.29062e-06
2.27183e-06
2.66486e-06
2.37863e-06
2.67287e-06
1.41962e-06
1.38953e-06
2.53844e-06
2.32731e-06
3.40053e-06
3.17765e-06
6.45367e-06
6.63101e-06
7.18176e-06
9.80716e-06
9.99791e-06
8.71058e-06
8.43928e-06
8.97898e-06
8.83189e-06
8.43839e-06
8.04578e-06
7.61444e-06
7.27653e-06
6.96429e-06
6.61679e-06
6.31536e-06
6.07612e-06
5.84349e-06
5.61225e-06
5.40352e-06
5.22303e-06
5.06863e-06
4.92884e-06
4.79259e-06
4.66902e-06
4.57976e-06
4.51793e-06
4.44941e-06
4.35867e-06
4.27022e-06
4.2103e-06
4.16804e-06
4.11553e-06
4.0634e-06
4.03544e-06
4.0221e-06
3.99421e-06
3.95284e-06
3.92419e-06
3.90766e-06
3.88513e-06
3.86211e-06
3.85415e-06
3.85518e-06
3.85261e-06
3.85044e-06
3.85407e-06
3.85574e-06
3.85107e-06
3.84852e-06
3.85403e-06
3.8638e-06
3.87611e-06
3.89556e-06
3.92258e-06
3.94934e-06
3.96943e-06
3.98436e-06
3.99738e-06
4.00689e-06
4.01614e-06
4.03814e-06
4.07775e-06
4.12296e-06
4.16428e-06
4.20454e-06
4.24461e-06
4.27809e-06
4.30593e-06
4.33812e-06
4.3762e-06
4.41263e-06
4.44993e-06
4.49898e-06
4.55626e-06
4.60492e-06
4.64303e-06
4.68681e-06
4.74124e-06
4.79409e-06
4.84193e-06
4.89992e-06
4.9763e-06
5.05935e-06
5.13858e-06
5.22082e-06
5.31159e-06
5.40005e-06
5.47724e-06
5.54983e-06
5.62455e-06
5.69816e-06
5.76905e-06
5.84404e-06
5.92973e-06
6.02636e-06
6.12978e-06
6.23398e-06
6.33372e-06
6.4279e-06
6.51933e-06
6.61193e-06
6.70961e-06
6.81552e-06
6.92986e-06
7.04703e-06
7.15855e-06
7.26297e-06
7.37117e-06
7.49962e-06
7.65339e-06
7.81509e-06
7.95443e-06
8.05962e-06
8.15536e-06
8.27478e-06
8.41532e-06