/*--------------------------------*- C++ -*----------------------------------*\
| =========                 |                                                 |
| \\      /  F ield         | OpenFOAM: The Open Source CFD Toolbox           |
|  \\    /   O peration     | Version:  v2006                                 |
|   \\  /    A nd           | Website:  www.openfoam.com                      |
|    \\/     M anipulation  |                                                 |
\*---------------------------------------------------------------------------*/
FoamFile
{
    version     2.0;
    format      ascii;
    class       volScalarField;
    location    "0.6";
    object      omega;
}
// * * * * * * * * * * * * * * * * * * * * * * * * * * * * * * * * * * * * * //

dimensions      [0 0 -1 0 0 0 0];


internalField   nonuniform List<scalar> 
33000
(
0.801575
0.801664
0.801661
0.801658
0.801656
0.801655
0.801653
0.801651
0.801649
0.801647
0.801645
0.801643
0.801641
0.80164
0.801639
0.801638
0.801637
0.801635
0.801633
0.801631
0.801628
0.801626
0.801623
0.801621
0.801618
0.801616
0.801613
0.80161
0.801607
0.801604
0.801601
0.801597
0.801592
0.801588
0.801584
0.80158
0.801577
0.801573
0.801569
0.801565
0.801561
0.801557
0.801552
0.801546
0.80154
0.801533
0.801527
0.80152
0.801513
0.801506
0.801499
0.801492
0.801485
0.801479
0.801473
0.801467
0.801462
0.801456
0.801451
0.801445
0.80144
0.801435
0.801429
0.801424
0.801418
0.801413
0.801408
0.801403
0.801398
0.801392
0.801387
0.801381
0.801374
0.801367
0.801358
0.801346
0.80133
0.801327
0.801269
0.801272
0.801257
0.801261
0.801259
0.801257
0.80126
0.80126
0.801258
0.801258
0.801257
0.801257
0.801256
0.801256
0.801256
0.801255
0.801255
0.801254
0.801254
0.801253
0.801252
0.801251
0.80125
0.801249
0.801249
0.801248
0.801247
0.801247
0.801246
0.801245
0.801245
0.801244
0.801243
0.801242
0.801242
0.801241
0.80124
0.801239
0.801238
0.801236
0.801236
0.801235
0.801234
0.801234
0.801233
0.801233
0.801232
0.801231
0.801231
0.80123
0.801229
0.801229
0.801228
0.801228
0.801227
0.801226
0.801226
0.801225
0.801225
0.801224
0.801224
0.801223
0.801222
0.801222
0.801221
0.801221
0.80122
0.80122
0.801219
0.801219
0.801218
0.801218
0.801217
0.801217
0.801216
0.801216
0.801215
0.801215
0.801214
0.801214
0.801213
0.801213
0.801212
0.801212
0.801212
0.801211
0.801211
0.80121
0.80121
0.801209
0.801209
0.801209
0.801208
0.801208
0.801208
0.801207
0.801207
0.801207
0.801206
0.801206
0.801205
0.801205
0.801205
0.801205
0.801204
0.801204
0.801204
0.801203
0.801203
0.801203
0.801202
0.801202
0.801202
0.801202
0.801201
0.801201
0.801201
0.801201
0.8012
0.8012
0.8012
0.8012
0.801199
0.801199
0.801199
0.801199
0.801199
0.801198
0.801198
0.801198
0.801198
0.801198
0.801197
0.801197
0.801197
0.801197
0.801197
0.801197
0.801196
0.801196
0.801196
0.801196
0.801196
0.801196
0.801195
0.801195
0.801195
0.801195
0.801195
0.801195
0.801195
0.801195
0.801194
0.801194
0.801194
0.801194
0.801194
0.801194
0.801194
0.801194
0.801194
0.801193
0.801193
0.801193
0.801193
0.801193
0.801193
0.801193
0.801193
0.801193
0.801193
0.801193
0.801192
0.801192
0.801192
0.801192
0.801192
0.801192
0.801192
0.801192
0.801192
0.801192
0.801192
0.801192
0.801192
0.801192
0.801191
0.801191
0.801191
0.801191
0.801191
0.801191
0.801191
0.801191
0.801191
0.801191
0.801191
0.801191
0.801191
0.801191
0.801191
0.801191
0.801191
0.801191
0.801191
0.801191
0.801191
0.80119
0.80119
0.80119
0.80119
0.80119
0.80119
0.80119
0.80119
0.80119
0.80119
0.80119
0.80119
0.80119
0.80119
0.80119
0.80119
0.80119
0.80119
0.80119
0.80119
0.80119
0.80119
0.80119
0.80119
0.80119
0.80119
0.80119
0.80119
0.80119
0.80119
0.80119
0.80119
0.80119
0.80119
0.80119
0.80119
0.80119
0.80119
0.80119
0.80119
0.80119
0.80119
0.80119
0.80119
0.801189
0.801189
0.801189
0.801189
0.801189
0.801189
0.801189
0.801189
0.801189
0.801189
0.801189
0.801189
0.801189
0.801189
0.801189
0.801189
0.801189
0.801189
0.801189
0.801189
0.801189
0.801189
0.801189
0.801189
0.801189
0.801189
0.801189
0.801189
0.801189
0.801189
0.801189
0.801189
0.801189
0.801189
0.801189
0.801189
0.801189
0.801189
0.801189
0.801189
0.801189
0.801189
0.801189
0.801189
0.801189
0.801189
0.801189
0.801189
0.801189
0.801189
0.801189
0.801189
0.801189
0.801189
0.801189
0.801189
0.801189
0.801189
0.801189
0.801189
0.801189
0.801189
0.801189
0.801189
0.801189
0.801189
0.801189
0.801189
0.801189
0.801189
0.801189
0.801189
0.801189
0.801189
0.801189
0.801189
0.801189
0.801189
0.801189
0.801189
0.801189
0.801189
0.801189
0.801189
0.801189
0.801189
0.801189
0.801189
0.801189
0.801189
0.801189
0.801189
0.801189
0.801189
0.801189
0.801189
0.801189
0.801189
0.801189
0.801189
0.801189
0.801189
0.801189
0.801189
0.801189
0.801189
0.801189
0.801189
0.801189
0.801189
0.801189
0.801189
0.801189
0.801189
0.801189
0.801189
0.801189
0.801189
0.801189
0.801189
0.801189
0.801189
0.801189
0.801189
0.801189
0.801189
0.801189
0.801189
0.801189
0.801189
0.801189
0.801189
0.801189
0.801189
0.801189
0.801189
0.801189
0.801189
0.801189
0.801189
0.801189
0.801189
0.801189
0.801189
0.801189
0.801189
0.801189
0.801189
0.801189
0.801189
0.801189
0.801189
0.801189
0.801189
0.801189
0.801189
0.801189
0.801189
0.801189
0.801189
0.801189
0.801189
0.801189
0.801189
0.801189
0.801189
0.801189
0.801189
0.801189
0.801189
0.801189
0.801189
0.801189
0.801189
0.801189
0.801189
0.801189
0.801189
0.801189
0.801189
0.801189
0.801189
0.801189
0.801189
0.801189
0.801189
0.801189
0.801189
0.801189
0.801189
0.801189
0.801189
0.801189
0.801189
0.801189
0.801189
0.801189
0.801189
0.801189
0.801189
0.801189
0.801189
0.801189
0.801189
0.801189
0.801189
0.801189
0.801189
0.801189
0.801189
0.801189
0.801189
0.801189
0.801189
0.801189
0.801189
0.801189
0.801189
0.801189
0.801189
0.80119
0.00343934
0.00388655
0.00372674
0.00377119
0.00383747
0.00390001
0.00393987
0.00397448
0.00400831
0.00403991
0.0040719
0.00410465
0.00413624
0.00416774
0.00419864
0.00422802
0.00425595
0.00428251
0.00430782
0.00433258
0.00435724
0.00438151
0.00440261
0.00441677
0.00442203
0.00442257
0.00442396
0.0044254
0.0044275
0.00443013
0.00443269
0.00443498
0.00443745
0.00443996
0.00444223
0.00444422
0.00444574
0.00444622
0.00444412
0.00443948
0.00443617
0.00443036
0.00442261
0.00441331
0.00440238
0.00438984
0.00437572
0.00436096
0.00434581
0.00433047
0.00431517
0.00430026
0.00428625
0.00427374
0.00426341
0.0042553
0.00424899
0.00424356
0.00423921
0.00423717
0.00423502
0.00423463
0.00423771
0.00424586
0.00426099
0.00428373
0.00431277
0.00435099
0.00440441
0.00448114
0.00459261
0.00475459
0.00500304
0.00541223
0.00606498
0.00714076
0.00893967
0.0121796
0.0109639
0.00523114
0.00418396
0.00240525
0.00286407
0.00246647
0.00252971
0.00299639
0.00326654
0.00346256
0.00310335
0.00318725
0.0031065
0.00325278
0.0032127
0.00329836
0.00330802
0.00330023
0.00330521
0.00329084
0.00336361
0.00334915
0.00328867
0.00318029
0.00317136
0.00326654
0.00325513
0.00328994
0.00330651
0.00332269
0.00334503
0.00335114
0.00334741
0.00335598
0.00336771
0.00338069
0.00340774
0.00340135
0.00356023
0.00350129
0.00338348
0.00316969
0.00314201
0.0033215
0.00330128
0.00338458
0.00340953
0.00344627
0.00345787
0.00344466
0.00344806
0.0034565
0.00346272
0.00347059
0.00347869
0.00348511
0.00349263
0.00350041
0.0035082
0.00351624
0.00352461
0.00353241
0.00354075
0.00354941
0.00355816
0.00356616
0.00357492
0.00358431
0.00359223
0.00360005
0.00360835
0.00361675
0.00362424
0.00363169
0.00363972
0.00364707
0.00365404
0.00366184
0.00367023
0.00367706
0.00368352
0.00368958
0.00369552
0.003701
0.00370624
0.00371132
0.00371678
0.00372222
0.00372695
0.00373002
0.00373344
0.00373535
0.00373552
0.00373531
0.00373441
0.00373361
0.00373251
0.00373035
0.0037285
0.00372685
0.00372498
0.00372301
0.00372127
0.00371956
0.00371756
0.00371542
0.00371348
0.0037117
0.00370984
0.00370791
0.00370609
0.00370437
0.00370258
0.00370062
0.0036986
0.0036967
0.00369494
0.0036932
0.00369146
0.00368978
0.00368815
0.00368653
0.00368495
0.00368339
0.00368182
0.00368024
0.00367868
0.00367707
0.00367539
0.00367372
0.00367205
0.00367029
0.00366858
0.00366713
0.00366594
0.00366475
0.00366351
0.00366241
0.00366142
0.00366029
0.00365896
0.0036577
0.0036566
0.0036555
0.00365431
0.00365321
0.00365231
0.00365144
0.00365042
0.0036493
0.00364823
0.0036472
0.00364616
0.00364512
0.00364413
0.00364316
0.0036422
0.0036413
0.00364051
0.00363974
0.00363886
0.00363787
0.00363689
0.003636
0.00363521
0.00363454
0.00363395
0.00363336
0.0036327
0.00363199
0.00363138
0.00363092
0.00363044
0.00362976
0.00362892
0.00362816
0.00362765
0.00362723
0.00362661
0.00362577
0.00362492
0.00362429
0.00362389
0.00362357
0.00362324
0.0036229
0.00362254
0.0036221
0.00362162
0.00362114
0.00362064
0.00362003
0.00361935
0.00361876
0.00361831
0.00361795
0.00361763
0.00361735
0.00361711
0.00361689
0.00361669
0.00361654
0.00361643
0.00361627
0.00361599
0.0036156
0.00361516
0.00361475
0.00361434
0.0036139
0.00361343
0.00361296
0.00361252
0.00361212
0.00361176
0.00361149
0.0036113
0.00361118
0.00361107
0.00361092
0.00361073
0.00361052
0.00361033
0.00361013
0.0036099
0.00360958
0.0036092
0.00360878
0.00360836
0.003608
0.0036077
0.00360749
0.00360736
0.0036073
0.00360729
0.00360731
0.00360732
0.00360728
0.00360717
0.00360697
0.00360671
0.00360639
0.00360606
0.00360571
0.00360534
0.00360497
0.00360465
0.00360447
0.00360448
0.00360464
0.00360478
0.00360481
0.00360473
0.00360461
0.00360444
0.00360413
0.00360365
0.00360311
0.00360272
0.00360257
0.00360252
0.00360249
0.00360252
0.00360268
0.00360293
0.00360311
0.00360314
0.00360307
0.00360295
0.00360276
0.00360251
0.00360227
0.00360213
0.00360209
0.00360213
0.00360229
0.00360252
0.00360271
0.00360276
0.00360269
0.00360255
0.00360236
0.00360211
0.00360187
0.00360175
0.0036018
0.00360197
0.00360217
0.00360234
0.00360245
0.00360246
0.00360234
0.0036021
0.00360182
0.0036016
0.00360149
0.00360145
0.00360143
0.00360142
0.00360141
0.00360138
0.00360123
0.00360094
0.0036006
0.00360036
0.00360029
0.00360038
0.00360058
0.00360077
0.00360085
0.00360079
0.00360062
0.00360041
0.00360024
0.00360022
0.00360036
0.00360059
0.00360086
0.00360107
0.00360111
0.00360093
0.00360061
0.00360032
0.00360021
0.00360023
0.00360026
0.0036003
0.00360032
0.0036002
0.00359998
0.00359984
0.00359986
0.00359999
0.00360011
0.0036001
0.00359996
0.00359981
0.00359971
0.00359964
0.00359968
0.00359973
0.00359971
0.00359963
0.00359983
0.00360016
0.00360034
0.00360049
0.00360031
0.00360007
0.00360001
0.00359999
0.0036001
0.00359991
0.00359963
0.00359928
0.00359928
0.00359933
0.00359954
0.00359982
0.00359962
0.00359975
0.00359943
0.0035996
0.00360048
0.00360044
0.00360038
0.00359982
0.00360014
0.00360012
0.00359962
0.00359957
0.00359943
0.00359962
0.00359948
0.00359969
0.00359979
0.00360036
0.00359982
0.00359939
0.00359991
0.00359937
0.00359921
0.00359948
0.00359936
0.00359973
0.00359931
0.00360022
0.00359903
0.00359928
0.00359996
0.00360029
0.00360108
0.00360157
0.00360024
0.00360134
0.00360136
0.00360118
0.00360167
0.00360233
0.0036027
0.00360289
0.00360303
0.00360278
0.00360201
0.00360117
0.00360086
0.00360103
0.00360113
0.00360084
0.00360024
0.00359976
0.00359954
0.00359963
0.00360006
0.0036007
0.00360131
0.00360186
0.00360222
0.00360235
0.00360226
0.00360187
0.0036011
0.00359995
0.00359909
0.00359905
0.00359904
0.00359903
0.00359903
0.00359903
0.00359903
0.00359903
0.00359903
0.00359904
0.00359906
0.00359913
0.00359928
0.00359962
0.00360002
0.00359998
0.00359959
0.00359933
0.00359924
0.00359917
0.00359913
0.00359916
0.00359927
0.00359953
0.0036002
0.00359947
0.00359926
0.00359919
0.00359935
0.00360238
0.00360513
0.00360393
0.00360017
0.00359953
0.00360219
0.00360532
0.00360352
0.00359941
0.00359925
0.00359952
0.00359964
0.00359916
0.00359903
0.00359942
0.00360225
0.00360087
0.00360499
0.00360509
0.00357317
0.00121422
0.00118787
0.00105611
0.00102508
0.001024
0.00102411
0.00102474
0.00102531
0.00102579
0.00102628
0.00102677
0.00102723
0.00102764
0.001028
0.00102833
0.00102864
0.00102892
0.00102914
0.00102933
0.00102949
0.00102963
0.00102974
0.00102982
0.00102982
0.00102975
0.00102965
0.00102954
0.00102943
0.00102931
0.00102919
0.00102905
0.00102889
0.00102871
0.00102851
0.0010283
0.00102808
0.00102786
0.00102763
0.00102739
0.00102718
0.00102694
0.00102668
0.00102638
0.00102607
0.00102574
0.0010254
0.00102504
0.00102469
0.00102435
0.00102402
0.0010237
0.00102339
0.00102309
0.00102279
0.00102249
0.0010222
0.00102191
0.00102162
0.00102136
0.00102113
0.00102091
0.00102072
0.00102059
0.00102052
0.0010205
0.00102055
0.00102069
0.00102096
0.00102138
0.00102199
0.00102287
0.00102415
0.00102603
0.001029
0.00103391
0.00104223
0.00105702
0.0010898
0.00109177
0.00104967
0.00104356
0.00103274
0.00102938
0.00105369
0.00105052
0.00103023
0.00102566
0.00102136
0.0010091
0.00101151
0.00100628
0.0010071
0.0010061
0.00100649
0.00100612
0.00100629
0.00100623
0.0010061
0.00100636
0.00100639
0.00100613
0.00100589
0.0010059
0.00100612
0.00100621
0.00100629
0.00100613
0.00100621
0.00100617
0.00100618
0.00100614
0.00100628
0.00100628
0.00100631
0.00100637
0.00100627
0.00100671
0.00100667
0.00100622
0.00100574
0.00100563
0.00100599
0.00100634
0.00100653
0.00100609
0.00100617
0.00100626
0.00100622
0.00100671
0.00100678
0.00100668
0.00100668
0.00100671
0.00100671
0.00100674
0.00100676
0.00100676
0.00100674
0.00100675
0.00100675
0.00100677
0.00100679
0.00100682
0.00100684
0.00100688
0.00100691
0.00100695
0.00100698
0.00100702
0.00100706
0.0010071
0.00100714
0.00100718
0.00100723
0.00100727
0.00100732
0.00100737
0.00100741
0.00100745
0.0010075
0.00100754
0.00100758
0.00100762
0.00100767
0.00100771
0.00100776
0.0010078
0.00100784
0.00100788
0.00100791
0.00100794
0.00100797
0.00100799
0.00100802
0.00100805
0.00100807
0.0010081
0.00100812
0.00100814
0.00100816
0.00100819
0.00100822
0.00100825
0.00100828
0.00100831
0.00100834
0.00100837
0.0010084
0.00100842
0.00100845
0.00100848
0.0010085
0.00100854
0.00100858
0.00100862
0.00100866
0.0010087
0.00100874
0.00100876
0.00100879
0.00100882
0.00100885
0.00100889
0.00100893
0.00100896
0.00100899
0.00100902
0.00100905
0.00100907
0.00100909
0.00100912
0.00100915
0.00100919
0.00100923
0.00100927
0.00100931
0.00100935
0.00100938
0.00100941
0.00100944
0.00100947
0.0010095
0.00100954
0.00100958
0.00100962
0.00100965
0.00100968
0.00100971
0.00100973
0.00100976
0.00100978
0.0010098
0.00100982
0.00100984
0.00100987
0.0010099
0.00100993
0.00100995
0.00100997
0.00100999
0.00101
0.00101001
0.00101002
0.00101003
0.00101004
0.00101005
0.00101006
0.00101007
0.00101009
0.0010101
0.00101011
0.00101011
0.00101011
0.00101012
0.00101012
0.00101011
0.00101011
0.0010101
0.0010101
0.00101009
0.00101009
0.00101009
0.00101008
0.00101008
0.00101008
0.00101007
0.00101007
0.00101007
0.00101006
0.00101006
0.00101005
0.00101005
0.00101005
0.00101004
0.00101004
0.00101004
0.00101004
0.00101004
0.00101003
0.00101003
0.00101003
0.00101003
0.00101003
0.00101002
0.00101002
0.00101002
0.00101001
0.00101001
0.00101001
0.00101
0.00101
0.00101
0.00101
0.00100999
0.00100999
0.00100999
0.00100999
0.00100999
0.00100999
0.00100999
0.00100998
0.00100998
0.00100998
0.00100998
0.00100998
0.00100997
0.00100997
0.00100997
0.00100997
0.00100997
0.00100996
0.00100996
0.00100996
0.00100996
0.00100996
0.00100996
0.00100996
0.00100996
0.00100996
0.00100995
0.00100995
0.00100995
0.00100995
0.00100995
0.00100994
0.00100994
0.00100994
0.00100994
0.00100994
0.00100994
0.00100994
0.00100994
0.00100994
0.00100994
0.00100994
0.00100993
0.00100993
0.00100993
0.00100993
0.00100993
0.00100993
0.00100993
0.00100993
0.00100993
0.00100993
0.00100993
0.00100993
0.00100993
0.00100993
0.00100992
0.00100992
0.00100992
0.00100992
0.00100992
0.00100993
0.00100993
0.00100993
0.00100993
0.00100992
0.00100992
0.00100992
0.00100992
0.00100992
0.00100992
0.00100992
0.00100992
0.00100992
0.00100992
0.00100992
0.00100992
0.00100992
0.00100992
0.00100992
0.00100992
0.00100992
0.00100992
0.00100992
0.00100991
0.00100991
0.00100991
0.00100991
0.00100991
0.00100991
0.00100991
0.00100991
0.00100991
0.00100991
0.00100991
0.00100991
0.00100991
0.00100991
0.00100991
0.00100991
0.00100991
0.00100991
0.00100991
0.00100991
0.00100991
0.00100991
0.00100991
0.00100991
0.00100991
0.00100991
0.00100991
0.00100991
0.0010099
0.0010099
0.0010099
0.0010099
0.0010099
0.0010099
0.0010099
0.0010099
0.0010099
0.0010099
0.0010099
0.0010099
0.0010099
0.0010099
0.0010099
0.0010099
0.0010099
0.0010099
0.0010099
0.00100991
0.0010099
0.0010099
0.0010099
0.0010099
0.0010099
0.0010099
0.0010099
0.0010099
0.0010099
0.0010099
0.0010099
0.0010099
0.0010099
0.0010099
0.0010099
0.0010099
0.00100991
0.00100991
0.00100991
0.0010099
0.0010099
0.0010099
0.0010099
0.0010099
0.0010099
0.0010099
0.0010099
0.0010099
0.0010099
0.0010099
0.0010099
0.0010099
0.0010099
0.0010099
0.0010099
0.0010099
0.0010099
0.0010099
0.0010099
0.0010099
0.0010099
0.0010099
0.0010099
0.0010099
0.00100991
0.00100991
0.0010099
0.00100991
0.00100991
0.00100991
0.00100992
0.00100992
0.00100992
0.00100992
0.00100992
0.00100992
0.00100992
0.00100991
0.00100991
0.00100991
0.00100991
0.00100991
0.0010099
0.0010099
0.0010099
0.0010099
0.0010099
0.00100991
0.00100991
0.00100992
0.00100992
0.00100992
0.00100991
0.00100991
0.00100991
0.0010099
0.0010099
0.0010099
0.0010099
0.0010099
0.0010099
0.0010099
0.0010099
0.0010099
0.0010099
0.0010099
0.0010099
0.0010099
0.0010099
0.0010099
0.0010099
0.0010099
0.0010099
0.0010099
0.0010099
0.0010099
0.0010099
0.0010099
0.0010099
0.0010099
0.00100991
0.0010099
0.0010099
0.0010099
0.0010099
0.00100993
0.00100993
0.00100992
0.00100991
0.00100991
0.00100993
0.00100994
0.00100992
0.0010099
0.0010099
0.00100991
0.0010099
0.0010099
0.0010099
0.00100991
0.00100992
0.00100991
0.00100993
0.00100992
0.00100975
0.00122906
0.00118373
0.00105079
0.00101923
0.00101789
0.00101764
0.00101795
0.00101827
0.00101858
0.00101887
0.00101914
0.00101935
0.00101952
0.00101968
0.00101981
0.00101992
0.00101999
0.00102001
0.00101999
0.00101995
0.0010199
0.00101984
0.00101975
0.00101965
0.00101953
0.0010194
0.00101926
0.00101909
0.00101891
0.00101873
0.00101854
0.00101833
0.0010181
0.00101786
0.0010176
0.00101733
0.00101705
0.00101676
0.00101649
0.00101622
0.00101598
0.00101573
0.00101548
0.00101525
0.001015
0.00101476
0.00101451
0.00101427
0.00101402
0.00101378
0.00101353
0.00101328
0.00101303
0.00101278
0.00101251
0.00101224
0.00101197
0.0010117
0.00101145
0.00101121
0.00101098
0.00101078
0.0010106
0.00101043
0.00101028
0.00101015
0.00101004
0.00100995
0.00100987
0.0010098
0.00100972
0.00100964
0.00100952
0.00100934
0.00100909
0.00100872
0.00100824
0.0010075
0.00100626
0.00100532
0.00100612
0.00100868
0.00101436
0.00101739
0.00101999
0.0010234
0.00102911
0.00104737
0.0010469
0.00102248
0.00102058
0.00100647
0.00100779
0.00100168
0.00100217
0.00100173
0.00100186
0.00100143
0.00100162
0.00100122
0.00100112
0.00100114
0.00100114
0.0010012
0.00100119
0.00100122
0.00100126
0.00100128
0.00100155
0.00100154
0.0010011
0.00100107
0.00100089
0.00100085
0.00100074
0.0010007
0.00100068
0.00100064
0.00100061
0.00100056
0.00100055
0.00100063
0.00100062
0.00100083
0.0010008
0.00100161
0.00100161
0.00100077
0.00100077
0.0010005
0.00100048
0.00100038
0.00100036
0.00100039
0.00100038
0.00100037
0.00100035
0.00100034
0.00100033
0.00100032
0.00100031
0.0010003
0.00100029
0.00100029
0.00100028
0.00100027
0.00100027
0.00100026
0.00100026
0.00100025
0.00100024
0.00100024
0.00100023
0.00100023
0.00100022
0.00100022
0.00100021
0.00100021
0.0010002
0.0010002
0.00100019
0.00100019
0.00100018
0.00100018
0.00100018
0.00100017
0.00100017
0.00100016
0.00100016
0.00100015
0.00100015
0.00100015
0.00100014
0.00100014
0.00100013
0.00100013
0.00100013
0.00100012
0.00100012
0.00100012
0.00100011
0.00100011
0.00100011
0.0010001
0.0010001
0.0010001
0.0010001
0.00100009
0.00100009
0.00100009
0.00100008
0.00100008
0.00100008
0.00100008
0.00100007
0.00100007
0.00100007
0.00100007
0.00100007
0.00100006
0.00100006
0.00100006
0.00100006
0.00100005
0.00100005
0.00100005
0.00100005
0.00100005
0.00100005
0.00100004
0.00100004
0.00100004
0.00100004
0.00100004
0.00100004
0.00100004
0.00100003
0.00100003
0.00100003
0.00100003
0.00100003
0.00100003
0.00100003
0.00100003
0.00100003
0.00100002
0.00100002
0.00100002
0.00100002
0.00100002
0.00100002
0.00100002
0.00100002
0.00100002
0.00100002
0.00100002
0.00100002
0.00100002
0.00100002
0.00100001
0.00100001
0.00100001
0.00100001
0.00100001
0.00100001
0.00100001
0.00100001
0.00100001
0.00100001
0.00100001
0.00100001
0.00100001
0.00100001
0.00100001
0.00100001
0.00100001
0.00100001
0.00100001
0.00100001
0.00100001
0.001
0.001
0.001
0.001
0.001
0.001
0.001
0.001
0.001
0.001
0.001
0.001
0.001
0.001
0.001
0.001
0.000999999
0.000999999
0.000999999
0.000999999
0.000999998
0.000999998
0.000999998
0.000999998
0.000999998
0.000999998
0.000999998
0.000999997
0.000999997
0.000999997
0.000999997
0.000999997
0.000999997
0.000999997
0.000999997
0.000999996
0.000999996
0.000999996
0.000999996
0.000999996
0.000999996
0.000999996
0.000999996
0.000999996
0.000999996
0.000999996
0.000999996
0.000999996
0.000999996
0.000999996
0.000999996
0.000999996
0.000999995
0.000999995
0.000999995
0.000999995
0.000999995
0.000999995
0.000999995
0.000999995
0.000999995
0.000999995
0.000999995
0.000999995
0.000999995
0.000999995
0.000999995
0.000999995
0.000999995
0.000999995
0.000999995
0.000999995
0.000999995
0.000999995
0.000999995
0.000999995
0.000999995
0.000999995
0.000999995
0.000999995
0.000999994
0.000999994
0.000999994
0.000999994
0.000999994
0.000999994
0.000999994
0.000999994
0.000999994
0.000999994
0.000999994
0.000999994
0.000999994
0.000999994
0.000999993
0.000999993
0.000999993
0.000999993
0.000999993
0.000999993
0.000999993
0.000999993
0.000999993
0.000999993
0.000999993
0.000999993
0.000999993
0.000999992
0.000999992
0.000999992
0.000999992
0.000999992
0.000999992
0.000999992
0.000999992
0.000999992
0.000999992
0.000999992
0.000999992
0.000999992
0.000999992
0.000999992
0.000999992
0.000999992
0.000999992
0.000999992
0.000999991
0.000999991
0.000999991
0.000999991
0.000999991
0.000999991
0.000999991
0.000999991
0.000999991
0.000999991
0.000999991
0.000999991
0.000999991
0.000999991
0.000999991
0.000999991
0.000999991
0.000999991
0.000999991
0.000999991
0.000999991
0.000999991
0.00099999
0.00099999
0.00099999
0.00099999
0.00099999
0.00099999
0.00099999
0.00099999
0.00099999
0.00099999
0.00099999
0.00099999
0.00099999
0.00099999
0.00099999
0.00099999
0.00099999
0.00099999
0.00099999
0.00099999
0.00099999
0.00099999
0.00099999
0.00099999
0.00099999
0.00099999
0.00099999
0.00099999
0.00099999
0.00099999
0.00099999
0.00099999
0.00099999
0.00099999
0.00099999
0.00099999
0.00099999
0.00099999
0.00099999
0.00099999
0.00099999
0.00099999
0.00099999
0.00099999
0.00099999
0.00099999
0.00099999
0.00099999
0.00099999
0.00099999
0.00099999
0.00099999
0.00099999
0.000999989
0.000999988
0.000999988
0.000999988
0.000999988
0.000999988
0.000999988
0.000999988
0.000999988
0.000999988
0.000999987
0.000999987
0.000999987
0.000999987
0.000999987
0.000999987
0.000999987
0.000999987
0.000999987
0.000999988
0.000999988
0.000999988
0.000999988
0.000999988
0.000999988
0.000999988
0.000999988
0.000999989
0.000999989
0.000999989
0.000999989
0.000999989
0.000999989
0.000999989
0.00099999
0.00099999
0.00099999
0.00099999
0.00099999
0.000999991
0.000999991
0.000999991
0.000999991
0.000999991
0.000999991
0.000999992
0.000999992
0.000999992
0.000999992
0.000999992
0.000999992
0.000999992
0.000999992
0.000999993
0.000999993
0.000999993
0.000999993
0.000999993
0.000999993
0.000999993
0.000999993
0.000999993
0.000999993
0.000999993
0.000999993
0.000999993
0.000999993
0.000999993
0.000999993
0.000999993
0.000999993
0.000999993
0.000999993
0.000999993
0.000999993
0.000999994
0.000999993
0.000999993
0.000999993
0.000999993
0.000999993
0.000999993
0.000999993
0.000999993
0.000999993
0.000999993
0.000999993
0.000999993
0.000999992
0.00125228
0.00118559
0.00105136
0.0010196
0.00101826
0.00101799
0.00101827
0.00101858
0.00101888
0.00101915
0.0010194
0.00101962
0.00101982
0.00101999
0.00102014
0.00102026
0.00102033
0.00102036
0.00102036
0.00102033
0.00102028
0.00102022
0.00102014
0.00102004
0.00101991
0.00101978
0.00101962
0.00101944
0.00101924
0.00101904
0.00101883
0.00101862
0.00101839
0.00101815
0.00101789
0.0010176
0.0010173
0.00101698
0.00101668
0.00101639
0.00101612
0.00101587
0.00101563
0.0010154
0.00101517
0.00101493
0.00101469
0.00101443
0.00101416
0.00101388
0.0010136
0.00101332
0.00101304
0.00101277
0.00101249
0.00101223
0.00101197
0.00101172
0.00101148
0.00101125
0.00101103
0.00101082
0.00101063
0.00101044
0.00101027
0.0010101
0.00100994
0.0010098
0.00100965
0.0010095
0.00100934
0.00100916
0.00100893
0.00100863
0.00100827
0.00100783
0.00100729
0.00100666
0.00100598
0.00100541
0.00100475
0.00100394
0.00100357
0.00100609
0.00100848
0.00100984
0.00101591
0.00101896
0.00102346
0.00102319
0.00104745
0.00104554
0.00102238
0.00102046
0.00100613
0.0010075
0.00100157
0.00100198
0.00100173
0.00100186
0.00100138
0.00100154
0.00100115
0.00100107
0.0010011
0.00100109
0.00100112
0.00100117
0.00100111
0.00100118
0.00100111
0.00100145
0.00100142
0.00100098
0.00100095
0.00100076
0.00100072
0.00100063
0.0010006
0.00100059
0.00100057
0.00100055
0.0010005
0.00100049
0.00100058
0.00100058
0.00100081
0.00100078
0.00100155
0.00100154
0.00100074
0.00100074
0.00100046
0.00100045
0.00100039
0.00100032
0.0010003
0.00100033
0.00100032
0.00100031
0.0010003
0.00100029
0.00100028
0.00100028
0.00100027
0.00100027
0.00100026
0.00100025
0.00100025
0.00100024
0.00100023
0.00100023
0.00100022
0.00100022
0.00100021
0.00100021
0.0010002
0.0010002
0.00100019
0.00100019
0.00100018
0.00100017
0.00100017
0.00100017
0.00100016
0.00100016
0.00100015
0.00100015
0.00100014
0.00100014
0.00100013
0.00100013
0.00100013
0.00100012
0.00100012
0.00100012
0.00100011
0.00100011
0.0010001
0.0010001
0.0010001
0.00100009
0.00100009
0.00100009
0.00100008
0.00100008
0.00100008
0.00100007
0.00100007
0.00100007
0.00100006
0.00100006
0.00100006
0.00100006
0.00100005
0.00100005
0.00100005
0.00100004
0.00100004
0.00100004
0.00100004
0.00100003
0.00100003
0.00100003
0.00100003
0.00100003
0.00100002
0.00100002
0.00100002
0.00100002
0.00100002
0.00100001
0.00100001
0.00100001
0.00100001
0.00100001
0.00100001
0.001
0.001
0.001
0.000999999
0.000999997
0.000999996
0.000999995
0.000999994
0.000999993
0.000999992
0.00099999
0.000999989
0.000999988
0.000999987
0.000999986
0.000999985
0.000999984
0.000999983
0.000999982
0.000999982
0.000999981
0.00099998
0.000999979
0.000999979
0.000999978
0.000999977
0.000999976
0.000999976
0.000999975
0.000999974
0.000999974
0.000999973
0.000999973
0.000999972
0.000999972
0.000999971
0.000999971
0.000999971
0.00099997
0.000999969
0.000999969
0.000999969
0.000999968
0.000999968
0.000999968
0.000999967
0.000999967
0.000999967
0.000999966
0.000999966
0.000999966
0.000999965
0.000999965
0.000999965
0.000999964
0.000999964
0.000999964
0.000999964
0.000999963
0.000999963
0.000999963
0.000999962
0.000999962
0.000999962
0.000999962
0.000999962
0.000999962
0.000999961
0.000999961
0.000999961
0.000999961
0.000999961
0.000999961
0.000999961
0.000999961
0.000999961
0.00099996
0.00099996
0.00099996
0.00099996
0.00099996
0.00099996
0.00099996
0.00099996
0.00099996
0.00099996
0.00099996
0.00099996
0.00099996
0.00099996
0.00099996
0.00099996
0.00099996
0.00099996
0.000999959
0.000999959
0.000999959
0.000999959
0.000999959
0.000999959
0.000999959
0.000999959
0.000999959
0.000999959
0.000999959
0.000999959
0.000999959
0.000999959
0.000999959
0.000999959
0.000999959
0.000999959
0.000999959
0.000999959
0.000999959
0.000999959
0.000999959
0.000999959
0.000999959
0.000999959
0.000999959
0.000999959
0.000999959
0.000999959
0.000999959
0.000999959
0.000999959
0.000999958
0.000999958
0.000999958
0.000999958
0.000999958
0.000999958
0.000999958
0.000999958
0.000999958
0.000999958
0.000999958
0.000999958
0.000999958
0.000999958
0.000999958
0.000999957
0.000999957
0.000999957
0.000999957
0.000999957
0.000999957
0.000999957
0.000999957
0.000999957
0.000999957
0.000999957
0.000999957
0.000999957
0.000999957
0.000999957
0.000999957
0.000999957
0.000999956
0.000999956
0.000999956
0.000999956
0.000999956
0.000999956
0.000999956
0.000999956
0.000999956
0.000999956
0.000999956
0.000999956
0.000999956
0.000999956
0.000999956
0.000999956
0.000999956
0.000999956
0.000999956
0.000999956
0.000999956
0.000999955
0.000999955
0.000999955
0.000999955
0.000999955
0.000999955
0.000999955
0.000999955
0.000999955
0.000999955
0.000999955
0.000999955
0.000999955
0.000999955
0.000999955
0.000999955
0.000999955
0.000999955
0.000999955
0.000999955
0.000999955
0.000999955
0.000999955
0.000999955
0.000999955
0.000999955
0.000999955
0.000999955
0.000999955
0.000999955
0.000999955
0.000999955
0.000999955
0.000999955
0.000999955
0.000999955
0.000999955
0.000999955
0.000999955
0.000999955
0.000999955
0.000999955
0.000999955
0.000999955
0.000999955
0.000999955
0.000999955
0.000999955
0.000999955
0.000999955
0.000999955
0.000999955
0.000999955
0.000999955
0.000999955
0.000999955
0.000999955
0.000999955
0.000999955
0.000999955
0.000999955
0.000999954
0.000999954
0.000999953
0.000999953
0.000999953
0.000999953
0.000999953
0.000999953
0.000999953
0.000999953
0.000999953
0.000999952
0.000999952
0.000999952
0.000999952
0.000999952
0.000999952
0.000999952
0.000999952
0.000999952
0.000999952
0.000999952
0.000999952
0.000999952
0.000999952
0.000999952
0.000999953
0.000999953
0.000999953
0.000999953
0.000999953
0.000999953
0.000999954
0.000999954
0.000999954
0.000999954
0.000999954
0.000999954
0.000999954
0.000999955
0.000999955
0.000999955
0.000999955
0.000999955
0.000999955
0.000999956
0.000999956
0.000999956
0.000999956
0.000999956
0.000999957
0.000999957
0.000999957
0.000999957
0.000999957
0.000999957
0.000999957
0.000999957
0.000999957
0.000999957
0.000999957
0.000999958
0.000999958
0.000999958
0.000999958
0.000999958
0.000999958
0.000999958
0.000999958
0.000999958
0.000999958
0.000999958
0.000999958
0.000999958
0.000999958
0.000999957
0.000999958
0.000999958
0.000999958
0.000999958
0.000999957