/*--------------------------------*- C++ -*----------------------------------*\
| =========                 |                                                 |
| \\      /  F ield         | OpenFOAM: The Open Source CFD Toolbox           |
|  \\    /   O peration     | Version:  v2006                                 |
|   \\  /    A nd           | Website:  www.openfoam.com                      |
|    \\/     M anipulation  |                                                 |
\*---------------------------------------------------------------------------*/
FoamFile
{
    version     2.0;
    format      ascii;
    class       volScalarField;
    location    "0.6";
    object      p_rgh;
}
// * * * * * * * * * * * * * * * * * * * * * * * * * * * * * * * * * * * * * //

dimensions      [1 -1 -2 0 0 0 0];


internalField   nonuniform List<scalar> 
33000
(
7757.08
7758.99
7760.49
7761.99
7763.48
7764.97
7766.46
7767.94
7769.42
7770.89
7772.36
7773.81
7775.26
7776.69
7778.11
7779.52
7780.91
7782.29
7783.66
7785.02
7786.35
7787.68
7788.98
7790.27
7791.55
7792.8
7794.04
7795.26
7796.47
7797.65
7798.81
7799.96
7801.09
7802.19
7803.28
7804.35
7805.39
7806.42
7807.42
7808.41
7809.37
7810.31
7811.24
7812.14
7813.02
7813.89
7814.73
7815.56
7816.37
7817.16
7817.93
7818.69
7819.42
7820.13
7820.83
7821.51
7822.17
7822.81
7823.43
7824.03
7824.61
7825.18
7825.73
7826.27
7826.78
7827.28
7827.77
7828.24
7828.69
7829.13
7829.55
7829.96
7830.35
7830.72
7831.08
7831.41
7831.71
7831.96
7832.24
7832.74
7833.09
7833.42
7833.78
7834.11
7834.43
7834.75
7835.07
7835.36
7835.65
7835.94
7836.21
7836.48
7836.74
7836.99
7837.24
7837.47
7837.7
7837.93
7838.14
7838.35
7838.55
7838.75
7838.93
7839.11
7839.29
7839.46
7839.62
7839.78
7839.93
7840.07
7840.21
7840.35
7840.48
7840.6
7840.72
7840.84
7840.95
7841.06
7841.15
7841.25
7841.34
7841.43
7841.52
7841.6
7841.68
7841.75
7841.82
7841.89
7841.95
7842.01
7842.07
7842.12
7842.17
7842.22
7842.26
7842.3
7842.34
7842.37
7842.4
7842.43
7842.46
7842.49
7842.51
7842.53
7842.55
7842.56
7842.58
7842.59
7842.6
7842.61
7842.62
7842.62
7842.63
7842.63
7842.63
7842.63
7842.63
7842.63
7842.62
7842.62
7842.61
7842.6
7842.59
7842.58
7842.57
7842.56
7842.55
7842.54
7842.52
7842.51
7842.49
7842.48
7842.46
7842.44
7842.43
7842.41
7842.39
7842.37
7842.35
7842.33
7842.31
7842.29
7842.27
7842.24
7842.22
7842.2
7842.18
7842.16
7842.13
7842.11
7842.09
7842.06
7842.04
7842.02
7841.99
7841.97
7841.95
7841.92
7841.9
7841.87
7841.85
7841.83
7841.8
7841.78
7841.75
7841.73
7841.71
7841.68
7841.66
7841.64
7841.61
7841.59
7841.57
7841.54
7841.52
7841.5
7841.48
7841.45
7841.43
7841.41
7841.39
7841.37
7841.35
7841.32
7841.3
7841.28
7841.26
7841.24
7841.22
7841.2
7841.18
7841.16
7841.14
7841.12
7841.11
7841.09
7841.07
7841.05
7841.03
7841.02
7841
7840.98
7840.96
7840.95
7840.93
7840.92
7840.9
7840.89
7840.87
7840.86
7840.84
7840.83
7840.81
7840.8
7840.79
7840.77
7840.76
7840.75
7840.73
7840.72
7840.71
7840.7
7840.68
7840.67
7840.66
7840.65
7840.64
7840.63
7840.62
7840.61
7840.6
7840.59
7840.58
7840.57
7840.56
7840.55
7840.54
7840.53
7840.53
7840.52
7840.51
7840.5
7840.49
7840.49
7840.48
7840.47
7840.47
7840.46
7840.45
7840.45
7840.44
7840.43
7840.43
7840.42
7840.42
7840.41
7840.4
7840.4
7840.39
7840.39
7840.38
7840.38
7840.37
7840.37
7840.36
7840.36
7840.35
7840.35
7840.35
7840.34
7840.34
7840.33
7840.33
7840.33
7840.32
7840.32
7840.32
7840.31
7840.31
7840.31
7840.3
7840.3
7840.3
7840.29
7840.29
7840.29
7840.29
7840.28
7840.28
7840.28
7840.27
7840.27
7840.27
7840.27
7840.26
7840.26
7840.26
7840.26
7840.25
7840.25
7840.25
7840.25
7840.25
7840.24
7840.24
7840.24
7840.24
7840.24
7840.23
7840.23
7840.23
7840.23
7840.23
7840.22
7840.22
7840.22
7840.22
7840.22
7840.22
7840.21
7840.21
7840.21
7840.21
7840.21
7840.21
7840.2
7840.2
7840.2
7840.2
7840.2
7840.2
7840.2
7840.2
7840.19
7840.19
7840.19
7840.19
7840.19
7840.19
7840.19
7840.19
7840.19
7840.18
7840.18
7840.18
7840.18
7840.18
7840.18
7840.18
7840.18
7840.18
7840.18
7840.18
7840.17
7840.17
7840.17
7840.17
7840.17
7840.17
7840.17
7840.17
7840.17
7840.17
7840.17
7840.17
7840.17
7840.17
7840.17
7840.17
7840.17
7840.16
7840.16
7840.16
7840.16
7840.16
7840.16
7840.16
7840.16
7840.16
7840.16
7840.16
7840.16
7840.16
7840.16
7840.16
7840.16
7840.16
7840.16
7840.16
7840.16
7840.16
7840.16
7840.16
7840.16
7840.16
7840.16
7840.16
7840.16
7840.16
7840.16
7840.16
7840.16
7840.16
7840.16
7840.16
7840.16
7840.16
7840.16
7840.16
7840.16
7840.16
7840.16
7840.16
7840.16
7840.16
7840.16
7840.16
7840.16
7840.16
7840.15
7840.15
7840.15
7840.15
7840.15
7840.15
7840.15
7840.15
7840.15
7840.15
7840.15
7840.15
7840.15
7840.15
7840.15
7840.15
7840.15
7840.15
7840.15
7840.15
7840.15
7840.15
7840.15
7840.15
7840.15
7840.15
7840.15
7840.15
7840.15
7840.15
7840.15
7840.15
7840.15
7840.15
7840.15
7840.15
7840.15
7840.15
7840.15
7840.15
7840.15
7840.15
7840.15
7840.15
7840.15
7840.15
7840.15
7840.15
7840.15
7840.15
7840.15
7840.15
7840.15
7840.15
7840.15
7840.15
7840.15
7840.15
7840.15
7840.15
7840.15
7840.15
7840.15
7840.15
7840.15
7840.15
7840.15
7840.15
7840.15
7840.15
7840.15
7840.15
7840.15
7840.15
7840.15
7840.15
7840.15
7840.15
7840.15
7840.15
7840.15
7840.15
7840.15
7840.15
7840.15
7840.15
7840.15
7840.15
7840.15
7840.15
7840.15
7757.01
7758.8
7760.32
7761.85
7763.37
7764.88
7766.39
7767.89
7769.38
7770.87
7772.34
7773.8
7775.25
7776.69
7778.11
7779.52
7780.92
7782.3
7783.67
7785.03
7786.37
7787.69
7789
7790.29
7791.56
7792.82
7794.05
7795.27
7796.48
7797.66
7798.82
7799.97
7801.09
7802.2
7803.29
7804.35
7805.4
7806.43
7807.43
7808.42
7809.38
7810.33
7811.25
7812.16
7813.04
7813.91
7814.76
7815.58
7816.39
7817.18
7817.96
7818.71
7819.44
7820.16
7820.85
7821.53
7822.19
7822.83
7823.45
7824.05
7824.63
7825.2
7825.75
7826.28
7826.8
7827.3
7827.79
7828.26
7828.71
7829.15
7829.58
7829.99
7830.38
7830.76
7831.13
7831.47
7831.8
7832.13
7832.45
7832.77
7833.02
7833.29
7833.79
7834.13
7834.45
7834.78
7835.08
7835.38
7835.66
7835.95
7836.22
7836.49
7836.75
7837
7837.25
7837.49
7837.72
7837.94
7838.15
7838.36
7838.56
7838.76
7838.94
7839.12
7839.3
7839.47
7839.63
7839.79
7839.94
7840.08
7840.22
7840.36
7840.48
7840.61
7840.73
7840.84
7840.95
7841.06
7841.16
7841.26
7841.36
7841.44
7841.53
7841.61
7841.69
7841.76
7841.83
7841.9
7841.96
7842.02
7842.07
7842.13
7842.18
7842.22
7842.27
7842.31
7842.34
7842.38
7842.41
7842.44
7842.47
7842.49
7842.51
7842.53
7842.55
7842.57
7842.58
7842.59
7842.6
7842.61
7842.62
7842.62
7842.63
7842.63
7842.63
7842.63
7842.63
7842.63
7842.62
7842.62
7842.61
7842.6
7842.6
7842.59
7842.58
7842.56
7842.55
7842.54
7842.52
7842.51
7842.49
7842.48
7842.46
7842.44
7842.43
7842.41
7842.39
7842.37
7842.35
7842.33
7842.31
7842.29
7842.27
7842.25
7842.22
7842.2
7842.18
7842.16
7842.13
7842.11
7842.09
7842.06
7842.04
7842.02
7841.99
7841.97
7841.95
7841.92
7841.9
7841.87
7841.85
7841.83
7841.8
7841.78
7841.76
7841.73
7841.71
7841.68
7841.66
7841.64
7841.61
7841.59
7841.57
7841.55
7841.52
7841.5
7841.48
7841.45
7841.43
7841.41
7841.39
7841.37
7841.35
7841.32
7841.3
7841.28
7841.26
7841.24
7841.22
7841.2
7841.18
7841.16
7841.14
7841.12
7841.11
7841.09
7841.07
7841.05
7841.03
7841.02
7841
7840.98
7840.97
7840.95
7840.93
7840.92
7840.9
7840.89
7840.87
7840.86
7840.84
7840.83
7840.81
7840.8
7840.79
7840.77
7840.76
7840.75
7840.73
7840.72
7840.71
7840.7
7840.68
7840.67
7840.66
7840.65
7840.64
7840.63
7840.62
7840.61
7840.6
7840.59
7840.58
7840.57
7840.56
7840.55
7840.54
7840.53
7840.53
7840.52
7840.51
7840.5
7840.49
7840.49
7840.48
7840.47
7840.47
7840.46
7840.45
7840.45
7840.44
7840.43
7840.43
7840.42
7840.42
7840.41
7840.4
7840.4
7840.39
7840.39
7840.38
7840.38
7840.37
7840.37
7840.36
7840.36
7840.35
7840.35
7840.35
7840.34
7840.34
7840.33
7840.33
7840.33
7840.32
7840.32
7840.32
7840.31
7840.31
7840.31
7840.3
7840.3
7840.3
7840.29
7840.29
7840.29
7840.29
7840.28
7840.28
7840.28
7840.27
7840.27
7840.27
7840.27
7840.26
7840.26
7840.26
7840.26
7840.25
7840.25
7840.25
7840.25
7840.25
7840.24
7840.24
7840.24
7840.24
7840.24
7840.23
7840.23
7840.23
7840.23
7840.23
7840.22
7840.22
7840.22
7840.22
7840.22
7840.22
7840.21
7840.21
7840.21
7840.21
7840.21
7840.21
7840.2
7840.2
7840.2
7840.2
7840.2
7840.2
7840.2
7840.2
7840.19
7840.19
7840.19
7840.19
7840.19
7840.19
7840.19
7840.19
7840.19
7840.18
7840.18
7840.18
7840.18
7840.18
7840.18
7840.18
7840.18
7840.18
7840.18
7840.18
7840.17
7840.17
7840.17
7840.17
7840.17
7840.17
7840.17
7840.17
7840.17
7840.17
7840.17
7840.17
7840.17
7840.17
7840.17
7840.17
7840.16
7840.16
7840.16
7840.16
7840.16
7840.16
7840.16
7840.16
7840.16
7840.16
7840.16
7840.16
7840.16
7840.16
7840.16
7840.16
7840.16
7840.16
7840.16
7840.16
7840.16
7840.16
7840.16
7840.16
7840.16
7840.16
7840.16
7840.16
7840.16
7840.16
7840.16
7840.16
7840.16
7840.16
7840.16
7840.16
7840.16
7840.16
7840.16
7840.16
7840.16
7840.16
7840.16
7840.16
7840.16
7840.16
7840.16
7840.16
7840.16
7840.15
7840.15
7840.15
7840.15
7840.15
7840.15
7840.15
7840.15
7840.15
7840.15
7840.15
7840.15
7840.15
7840.15
7840.15
7840.15
7840.15
7840.15
7840.15
7840.15
7840.15
7840.15
7840.15
7840.15
7840.15
7840.15
7840.15
7840.15
7840.15
7840.15
7840.15
7840.15
7840.15
7840.15
7840.15
7840.15
7840.15
7840.15
7840.15
7840.15
7840.15
7840.15
7840.15
7840.15
7840.15
7840.15
7840.15
7840.15
7840.15
7840.15
7840.15
7840.15
7840.15
7840.15
7840.15
7840.15
7840.15
7840.15
7840.15
7840.15
7840.15
7840.15
7840.15
7840.15
7840.15
7840.15
7840.15
7840.15
7840.15
7840.15
7840.15
7840.15
7840.15
7840.15
7840.15
7840.15
7840.15
7840.15
7840.15
7840.15
7840.15
7840.15
7840.15
7840.15
7840.15
7840.15
7840.15
7840.15
7840.15
7840.15
7840.15
7840.15
7757.27
7759.09
7760.55
7762.04
7763.52
7765.01
7766.51
7768
7769.48
7770.96
7772.43
7773.89
7775.33
7776.77
7778.19
7779.6
7781
7782.38
7783.75
7785.1
7786.44
7787.77
7789.07
7790.36
7791.64
7792.89
7794.13
7795.35
7796.55
7797.73
7798.9
7800.04
7801.17
7802.28
7803.37
7804.44
7805.49
7806.52
7807.53
7808.53
7809.5
7810.45
7811.38
7812.28
7813.17
7814.04
7814.88
7815.71
7816.51
7817.3
7818.06
7818.81
7819.54
7820.26
7820.95
7821.62
7822.28
7822.91
7823.53
7824.13
7824.71
7825.28
7825.83
7826.36
7826.88
7827.38
7827.87
7828.34
7828.8
7829.24
7829.67
7830.08
7830.48
7830.86
7831.23
7831.59
7831.93
7832.27
7832.59
7832.91
7833.23
7833.56
7833.86
7834.1
7834.37
7834.83
7835.15
7835.43
7835.71
7836
7836.27
7836.53
7836.79
7837.05
7837.29
7837.53
7837.76
7837.98
7838.2
7838.4
7838.6
7838.8
7838.98
7839.16
7839.34
7839.51
7839.67
7839.82
7839.97
7840.12
7840.26
7840.39
7840.52
7840.64
7840.76
7840.87
7840.98
7841.09
7841.19
7841.29
7841.38
7841.47
7841.56
7841.64
7841.71
7841.78
7841.85
7841.92
7841.98
7842.04
7842.1
7842.15
7842.2
7842.24
7842.28
7842.32
7842.36
7842.39
7842.43
7842.45
7842.48
7842.5
7842.53
7842.55
7842.56
7842.58
7842.59
7842.6
7842.61
7842.62
7842.63
7842.63
7842.64
7842.64
7842.64
7842.64
7842.64
7842.63
7842.63
7842.62
7842.62
7842.61
7842.6
7842.59
7842.58
7842.57
7842.56
7842.54
7842.53
7842.51
7842.5
7842.48
7842.46
7842.45
7842.43
7842.41
7842.39
7842.37
7842.35
7842.33
7842.31
7842.29
7842.27
7842.25
7842.22
7842.2
7842.18
7842.16
7842.13
7842.11
7842.09
7842.06
7842.04
7842.02
7841.99
7841.97
7841.95
7841.92
7841.9
7841.87
7841.85
7841.83
7841.8
7841.78
7841.75
7841.73
7841.71
7841.68
7841.66
7841.64
7841.61
7841.59
7841.57
7841.54
7841.52
7841.5
7841.48
7841.45
7841.43
7841.41
7841.39
7841.37
7841.34
7841.32
7841.3
7841.28
7841.26
7841.24
7841.22
7841.2
7841.18
7841.16
7841.14
7841.12
7841.1
7841.09
7841.07
7841.05
7841.03
7841.01
7841
7840.98
7840.96
7840.95
7840.93
7840.91
7840.9
7840.88
7840.87
7840.85
7840.84
7840.83
7840.81
7840.8
7840.78
7840.77
7840.76
7840.74
7840.73
7840.72
7840.71
7840.7
7840.68
7840.67
7840.66
7840.65
7840.64
7840.63
7840.62
7840.61
7840.6
7840.59
7840.58
7840.57
7840.56
7840.55
7840.54
7840.53
7840.52
7840.52
7840.51
7840.5
7840.49
7840.49
7840.48
7840.47
7840.46
7840.46
7840.45
7840.44
7840.44
7840.43
7840.43
7840.42
7840.41
7840.41
7840.4
7840.4
7840.39
7840.39
7840.38
7840.38
7840.37
7840.37
7840.36
7840.36
7840.35
7840.35
7840.35
7840.34
7840.34
7840.33
7840.33
7840.33
7840.32
7840.32
7840.32
7840.31
7840.31
7840.31
7840.3
7840.3
7840.3
7840.29
7840.29
7840.29
7840.28
7840.28
7840.28
7840.28
7840.27
7840.27
7840.27
7840.27
7840.26
7840.26
7840.26
7840.26
7840.25
7840.25
7840.25
7840.25
7840.25
7840.24
7840.24
7840.24
7840.24
7840.23
7840.23
7840.23
7840.23
7840.23
7840.23
7840.22
7840.22
7840.22
7840.22
7840.22
7840.22
7840.21
7840.21
7840.21
7840.21
7840.21
7840.21
7840.2
7840.2
7840.2
7840.2
7840.2
7840.2
7840.2
7840.2
7840.19
7840.19
7840.19
7840.19
7840.19
7840.19
7840.19
7840.19
7840.19
7840.18
7840.18
7840.18
7840.18
7840.18
7840.18
7840.18
7840.18
7840.18
7840.18
7840.18
7840.17
7840.17
7840.17
7840.17
7840.17
7840.17
7840.17
7840.17
7840.17
7840.17
7840.17
7840.17
7840.17
7840.17
7840.17
7840.17
7840.16
7840.16
7840.16
7840.16
7840.16
7840.16
7840.16
7840.16
7840.16
7840.16
7840.16
7840.16
7840.16
7840.16
7840.16
7840.16
7840.16
7840.16
7840.16
7840.16
7840.16
7840.16
7840.16
7840.16
7840.16
7840.16
7840.16
7840.16
7840.16
7840.16
7840.16
7840.16
7840.16
7840.16
7840.16
7840.16
7840.16
7840.16
7840.16
7840.16
7840.16
7840.16
7840.16
7840.16
7840.16
7840.16
7840.16
7840.16
7840.16
7840.15
7840.15
7840.15
7840.15
7840.15
7840.15
7840.15
7840.15
7840.15
7840.15
7840.15
7840.15
7840.15
7840.15
7840.15
7840.15
7840.15
7840.15
7840.15
7840.15
7840.15
7840.15
7840.15
7840.15
7840.15
7840.15
7840.15
7840.15
7840.15
7840.15
7840.15
7840.15
7840.15
7840.15
7840.15
7840.15
7840.15
7840.15
7840.15
7840.15
7840.15
7840.15
7840.15
7840.15
7840.15
7840.15
7840.15
7840.15
7840.15
7840.15
7840.15
7840.15
7840.15
7840.15
7840.15
7840.15
7840.15
7840.15
7840.15
7840.15
7840.15
7840.15
7840.15
7840.15
7840.15
7840.15
7840.15
7840.15
7840.15
7840.15
7840.15
7840.15
7840.15
7840.15
7840.15
7840.15
7840.15
7840.15
7840.15
7840.15
7840.15
7840.15
7840.15
7840.15
7840.15
7840.15
7840.15
7840.15
7840.15
7840.15
7840.15
7840.15
7756.96
7758.81
7760.36
7761.9
7763.43
7764.96
7766.48
7768
7769.5
7770.99
7772.47
7773.94
7775.4
7776.84
7778.27
7779.68
7781.09
7782.47
7783.85
7785.21
7786.55
7787.88
7789.19
7790.48
7791.76
7793.02
7794.25
7795.48
7796.68
7797.86
7799.03
7800.17
7801.3
7802.41
7803.5
7804.57
7805.63
7806.66
7807.68
7808.67
7809.65
7810.6
7811.53
7812.44
7813.33
7814.19
7815.03
7815.86
7816.66
7817.44
7818.21
7818.95
7819.68
7820.39
7821.08
7821.75
7822.4
7823.04
7823.65
7824.25
7824.83
7825.4
7825.95
7826.48
7827
7827.5
7827.99
7828.47
7828.93
7829.37
7829.8
7830.22
7830.62
7831
7831.38
7831.74
7832.09
7832.43
7832.76
7833.09
7833.4
7833.71
7834.02
7834.33
7834.65
7834.94
7835.2
7835.42
7835.66
7836.06
7836.34
7836.59
7836.86
7837.11
7837.35
7837.59
7837.82
7838.04
7838.26
7838.46
7838.66
7838.86
7839.04
7839.22
7839.4
7839.56
7839.72
7839.88
7840.03
7840.17
7840.31
7840.44
7840.57
7840.69
7840.81
7840.92
7841.03
7841.13
7841.23
7841.33
7841.42
7841.51
7841.59
7841.67
7841.75
7841.82
7841.89
7841.95
7842.02
7842.07
7842.13
7842.18
7842.23
7842.27
7842.31
7842.35
7842.39
7842.42
7842.45
7842.48
7842.5
7842.53
7842.55
7842.57
7842.58
7842.6
7842.61
7842.62
7842.63
7842.64
7842.64
7842.65
7842.65
7842.65
7842.65
7842.65
7842.65
7842.65
7842.64
7842.64
7842.63
7842.62
7842.61
7842.6
7842.59
7842.58
7842.56
7842.55
7842.54
7842.52
7842.5
7842.49
7842.47
7842.45
7842.43
7842.42
7842.4
7842.38
7842.36
7842.34
7842.32
7842.29
7842.27
7842.25
7842.23
7842.21
7842.18
7842.16
7842.14
7842.11
7842.09
7842.07
7842.04
7842.02
7841.99
7841.97
7841.95
7841.92
7841.9
7841.87
7841.85
7841.83
7841.8
7841.78
7841.75
7841.73
7841.71
7841.68
7841.66
7841.63
7841.61
7841.59
7841.56
7841.54
7841.52
7841.5
7841.47
7841.45
7841.43
7841.41
7841.38
7841.36
7841.34
7841.32
7841.3
7841.28
7841.26
7841.24
7841.22
7841.2
7841.18
7841.16
7841.14
7841.12
7841.1
7841.08
7841.07
7841.05
7841.03
7841.01
7841
7840.98
7840.96
7840.94
7840.93
7840.91
7840.9
7840.88
7840.87
7840.85
7840.84
7840.82
7840.81
7840.8
7840.78
7840.77
7840.76
7840.74
7840.73
7840.72
7840.71
7840.69
7840.68
7840.67
7840.66
7840.65
7840.64
7840.63
7840.62
7840.61
7840.6
7840.59
7840.58
7840.57
7840.56
7840.55
7840.54
7840.53
7840.52
7840.52
7840.51
7840.5
7840.49
7840.48
7840.48
7840.47
7840.46
7840.46
7840.45
7840.44
7840.44
7840.43
7840.42
7840.42
7840.41
7840.41
7840.4
7840.4
7840.39
7840.39
7840.38
7840.38
7840.37
7840.37
7840.36
7840.36
7840.35
7840.35
7840.34
7840.34
7840.34
7840.33
7840.33
7840.33
7840.32
7840.32
7840.31
7840.31
7840.31
7840.3
7840.3
7840.3
7840.3
7840.29
7840.29
7840.29
7840.28
7840.28
7840.28
7840.28
7840.27
7840.27
7840.27
7840.27
7840.26
7840.26
7840.26
7840.26
7840.25
7840.25
7840.25
7840.25
7840.24
7840.24
7840.24
7840.24
7840.24
7840.23
7840.23
7840.23
7840.23
7840.23
7840.22
7840.22
7840.22
7840.22
7840.22
7840.22
7840.21
7840.21
7840.21
7840.21
7840.21
7840.21
7840.21
7840.2
7840.2
7840.2
7840.2
7840.2
7840.2
7840.2
7840.19
7840.19
7840.19
7840.19
7840.19
7840.19
7840.19
7840.19
7840.19
7840.18
7840.18
7840.18
7840.18
7840.18
7840.18
7840.18
7840.18
7840.18
7840.18
7840.18
7840.18
7840.17
7840.17
7840.17
7840.17
7840.17
7840.17
7840.17
7840.17
7840.17
7840.17
7840.17
7840.17
7840.17
7840.17
7840.17
7840.17
7840.16
7840.16
7840.16
7840.16
7840.16
7840.16
7840.16
7840.16
7840.16
7840.16
7840.16
7840.16
7840.16
7840.16
7840.16
7840.16
7840.16
7840.16
7840.16
7840.16
7840.16
7840.16
7840.16
7840.16
7840.16
7840.16
7840.16
7840.16
7840.16
7840.16
7840.16
7840.16
7840.16
7840.16
7840.16
7840.16
7840.16
7840.16
7840.16
7840.16
7840.16
7840.16
7840.16
7840.16
7840.16
7840.16
7840.16
7840.16
7840.16
7840.15
7840.15
7840.15
7840.15
7840.15
7840.15
7840.15
7840.15
7840.15
7840.15
7840.15
7840.15
7840.15
7840.15
7840.15
7840.15
7840.15
7840.15
7840.15
7840.15
7840.15
7840.15
7840.15
7840.15
7840.15
7840.15
7840.15
7840.15
7840.15
7840.15
7840.15
7840.15
7840.15
7840.15
7840.15
7840.15
7840.15
7840.15
7840.15
7840.15
7840.15
7840.15
7840.15
7840.15
7840.15
7840.15
7840.15
7840.15
7840.15
7840.15
7840.15
7840.15
7840.15
7840.15
7840.15
7840.15
7840.15
7840.15
7840.15
7840.15
7840.15
7840.15
7840.15
7840.15
7840.15
7840.15
7840.15
7840.15
7840.15
7840.15
7840.15
7840.15
7840.15
7840.15
7840.15
7840.15
7840.15
7840.15
7840.15
7840.15
7840.15
7840.15
7840.15
7840.15
7840.15
7840.15
7840.15
7840.15
7840.15
7840.15
7840.15
7840.15
7757.06
7758.86
7760.4
7761.94
7763.48
7765.01
7766.55
7768.07
7769.58
7771.08
7772.57
7774.04
7775.5
7776.95
7778.39
7779.81
7781.22
7782.62
7784.01
7785.37
7786.73
7788.06
7789.38
7790.68
7791.96
7793.23
7794.47
7795.7
7796.9
7798.09
7799.25
7800.4
7801.52
7802.63
7803.71
7804.78
7805.82
7806.85
7807.86
7808.85
7809.83
7810.78
7811.71
7812.62
7813.51
7814.37
7815.22
7816.04
7816.84
7817.62
7818.38
7819.13
7819.85
7820.56
7821.25
7821.91
7822.57
7823.2
7823.81
7824.41
7824.99
7825.55
7826.1
7826.64
7827.16
7827.67
7828.16
7828.63
7829.1
7829.54
7829.97
7830.38
7830.78
7831.17
7831.55
7831.91
7832.26
7832.61
7832.94
7833.26
7833.58
7833.89
7834.2
7834.5
7834.79
7835.07
7835.35
7835.62
7835.91
7836.16
7836.37
7836.58
7836.95
7837.21
7837.43
7837.68
7837.9
7838.12
7838.34
7838.54
7838.74
7838.93
7839.12
7839.3
7839.47
7839.64
7839.8
7839.95
7840.1
7840.24
7840.38
7840.51
7840.63
7840.75
7840.87
7840.98
7841.09
7841.19
7841.29
7841.38
7841.48
7841.56
7841.64
7841.72
7841.8
7841.87
7841.94
7842
7842.06
7842.12
7842.17
7842.22
7842.27
7842.31
7842.35
7842.39
7842.42
7842.46
7842.48
7842.51
7842.54
7842.56
7842.58
7842.6
7842.61
7842.63
7842.64
7842.65
7842.66
7842.66
7842.67
7842.67
7842.67
7842.67
7842.67
7842.67
7842.67
7842.66
7842.66
7842.65
7842.64
7842.64
7842.63
7842.61
7842.6
7842.59
7842.58
7842.56
7842.55
7842.53
7842.52
7842.5
7842.48
7842.46
7842.44
7842.42
7842.4
7842.38
7842.36
7842.34
7842.32
7842.3
7842.28
7842.26
7842.23
7842.21
7842.19
7842.16
7842.14
7842.12
7842.09
7842.07
7842.05
7842.02
7842
7841.97
7841.95
7841.92
7841.9
7841.87
7841.85
7841.83
7841.8
7841.78
7841.75
7841.73
7841.71
7841.68
7841.66
7841.63
7841.61
7841.59
7841.56
7841.54
7841.52
7841.49
7841.47
7841.45
7841.43
7841.4
7841.38
7841.36
7841.34
7841.32
7841.3
7841.28
7841.26
7841.24
7841.22
7841.2
7841.18
7841.16
7841.14
7841.12
7841.1
7841.08
7841.06
7841.04
7841.03
7841.01
7840.99
7840.98
7840.96
7840.94
7840.93
7840.91
7840.89
7840.88
7840.86
7840.85
7840.84
7840.82
7840.81
7840.79
7840.78
7840.77
7840.75
7840.74
7840.73
7840.71
7840.7
7840.69
7840.68
7840.67
7840.66
7840.65
7840.64
7840.62
7840.61
7840.6
7840.59
7840.58
7840.57
7840.57
7840.56
7840.55
7840.54
7840.53
7840.52
7840.51
7840.51
7840.5
7840.49
7840.48
7840.48
7840.47
7840.46
7840.45
7840.45
7840.44
7840.43
7840.43
7840.42
7840.42
7840.41
7840.41
7840.4
7840.39
7840.39
7840.38
7840.38
7840.37
7840.37
7840.36
7840.36
7840.36
7840.35
7840.35
7840.34
7840.34
7840.34
7840.33
7840.33
7840.32
7840.32
7840.32
7840.31
7840.31
7840.31
7840.3
7840.3
7840.3
7840.29
7840.29
7840.29
7840.29
7840.28
7840.28
7840.28
7840.27
7840.27
7840.27
7840.27
7840.26
7840.26
7840.26
7840.26
7840.26
7840.25
7840.25
7840.25
7840.25
7840.24
7840.24
7840.24
7840.24
7840.24
7840.23
7840.23
7840.23
7840.23
7840.23
7840.22
7840.22
7840.22
7840.22
7840.22
7840.22
7840.21
7840.21
7840.21
7840.21
7840.21
7840.21
7840.21
7840.2
7840.2
7840.2
7840.2
7840.2
7840.2
7840.2
7840.19
7840.19
7840.19
7840.19
7840.19
7840.19
7840.19
7840.19
7840.19
7840.18
7840.18
7840.18
7840.18
7840.18
7840.18
7840.18
7840.18
7840.18
7840.18
7840.18
7840.17
7840.17
7840.17
7840.17
7840.17
7840.17
7840.17
7840.17
7840.17
7840.17
7840.17
7840.17
7840.17
7840.17
7840.17
7840.17
7840.16
7840.16
7840.16
7840.16
7840.16
7840.16
7840.16
7840.16
7840.16
7840.16
7840.16
7840.16
7840.16
7840.16
7840.16
7840.16
7840.16
7840.16
7840.16
7840.16
7840.16
7840.16
7840.16
7840.16
7840.16
7840.16
7840.16
7840.16
7840.16
7840.16
7840.16
7840.16
7840.16
7840.16
7840.16
7840.16
7840.16
7840.16
7840.16
7840.16
7840.16
7840.16
7840.16
7840.16
7840.16
7840.16
7840.16
7840.16
7840.16
7840.16
7840.15
7840.15
7840.15
7840.15
7840.15
7840.15
7840.15
7840.15
7840.15
7840.15
7840.15
7840.15
7840.15
7840.15
7840.15
7840.15
7840.15
7840.15
7840.15
7840.15
7840.15
7840.15
7840.15
7840.15
7840.15
7840.15
7840.15
7840.15
7840.15
7840.15
7840.15
7840.15
7840.15
7840.15
7840.15
7840.15
7840.15
7840.15
7840.15
7840.15
7840.15
7840.15
7840.15
7840.15
7840.15
7840.15
7840.15
7840.15
7840.15
7840.15
7840.15
7840.15
7840.15
7840.15
7840.15
7840.15
7840.15
7840.15
7840.15
7840.15
7840.15
7840.15
7840.15
7840.15
7840.15
7840.15
7840.15
7840.15
7840.15
7840.15
7840.15
7840.15
7840.15
7840.15
7840.15
7840.15
7840.15
7840.15
7840.15
7840.15
7840.15
7840.15
7840.15
7840.15
7840.15
7840.15
7840.15
7840.15
7840.15
7840.15
7840.15
7840.15
7756.99
7758.81
7760.39
7761.97
7763.52
7765.07
7766.61
7768.14
7769.66
7771.17
7772.66
7774.15
7775.62
7777.08
7778.53
7779.98
7781.4
7782.82
7784.22
7785.6
7786.97
7788.31
7789.64
7790.95
7792.24
7793.52
7794.77
7796
7797.21
7798.4
7799.57
7800.71
7801.84
7802.94
7804.01
7805.07
7806.1
7807.12
7808.11
7809.09
7810.05
7811
7811.92
7812.83
7813.71
7814.57
7815.42
7816.24
7817.03
7817.81
7818.57
7819.31
7820.03
7820.73
7821.42
7822.09
7822.74
7823.37
7823.98
7824.58
7825.16
7825.73
7826.28
7826.82
7827.34
7827.84
7828.34
7828.81
7829.28
7829.72
7830.15
7830.56
7830.96
7831.34
7831.72
7832.08
7832.43
7832.78
7833.11
7833.44
7833.76
7834.07
7834.37
7834.67
7834.95
7835.24
7835.51
7835.79
7836.05
7836.3
7836.56
7836.81
7837.05
7837.25
7837.42
7837.77
7838
7838.19
7838.43
7838.63
7838.82
7839.02
7839.21
7839.38
7839.56
7839.72
7839.88
7840.03
7840.18
7840.32
7840.45
7840.58
7840.71
7840.83
7840.94
7841.05
7841.16
7841.26
7841.36
7841.45
7841.54
7841.62
7841.7
7841.78
7841.85
7841.92
7841.99
7842.05
7842.11
7842.17
7842.22
7842.27
7842.31
7842.35
7842.39
7842.43
7842.46
7842.49
7842.52
7842.55
7842.57
7842.59
7842.61
7842.63
7842.64
7842.66
7842.67
7842.68
7842.68
7842.69
7842.69
7842.7
7842.7
7842.7
7842.7
7842.69
7842.69
7842.68
7842.68
7842.67
7842.66
7842.65
7842.64
7842.63
7842.62
7842.6
7842.59
7842.57
7842.56
7842.54
7842.53
7842.51
7842.49
7842.47
7842.45
7842.43
7842.41
7842.39
7842.37
7842.35
7842.33
7842.31
7842.28
7842.26
7842.24
7842.21
7842.19
7842.17
7842.14
7842.12
7842.1
7842.07
7842.05
7842.02
7842
7841.97
7841.95
7841.92
7841.9
7841.87
7841.85
7841.83
7841.8
7841.78
7841.75
7841.73
7841.7
7841.68
7841.66
7841.63
7841.61
7841.58
7841.56
7841.54
7841.51
7841.49
7841.47
7841.45
7841.42
7841.4
7841.38
7841.36
7841.34
7841.31
7841.29
7841.27
7841.25
7841.23
7841.21
7841.19
7841.17
7841.15
7841.13
7841.11
7841.1
7841.08
7841.06
7841.04
7841.02
7841.01
7840.99
7840.97
7840.96
7840.94
7840.92
7840.91
7840.89
7840.88
7840.86
7840.85
7840.83
7840.82
7840.8
7840.79
7840.78
7840.76
7840.75
7840.74
7840.72
7840.71
7840.7
7840.69
7840.68
7840.67
7840.65
7840.64
7840.63
7840.62
7840.61
7840.6
7840.59
7840.58
7840.57
7840.56
7840.55
7840.54
7840.54
7840.53
7840.52
7840.51
7840.5
7840.5
7840.49
7840.48
7840.47
7840.47
7840.46
7840.45
7840.45
7840.44
7840.43
7840.43
7840.42
7840.41
7840.41
7840.4
7840.4
7840.39
7840.39
7840.38
7840.38
7840.37
7840.37
7840.36
7840.36
7840.35
7840.35
7840.35
7840.34
7840.34
7840.33
7840.33
7840.33
7840.32
7840.32
7840.32
7840.31
7840.31
7840.31
7840.3
7840.3
7840.3
7840.29
7840.29
7840.29
7840.28
7840.28
7840.28
7840.28
7840.27
7840.27
7840.27
7840.27
7840.26
7840.26
7840.26
7840.26
7840.25
7840.25
7840.25
7840.25
7840.25
7840.24
7840.24
7840.24
7840.24
7840.24
7840.23
7840.23
7840.23
7840.23
7840.23
7840.22
7840.22
7840.22
7840.22
7840.22
7840.22
7840.21
7840.21
7840.21
7840.21
7840.21
7840.21
7840.2
7840.2
7840.2
7840.2
7840.2
7840.2
7840.2
7840.2
7840.19
7840.19
7840.19
7840.19
7840.19
7840.19
7840.19
7840.19
7840.19
7840.18
7840.18
7840.18
7840.18
7840.18
7840.18
7840.18
7840.18
7840.18
7840.18
7840.18
7840.17
7840.17
7840.17
7840.17
7840.17
7840.17
7840.17
7840.17
7840.17
7840.17
7840.17
7840.17
7840.17
7840.17
7840.17
7840.17
7840.16
7840.16
7840.16
7840.16
7840.16
7840.16
7840.16
7840.16
7840.16
7840.16
7840.16
7840.16
7840.16
7840.16
7840.16
7840.16
7840.16
7840.16
7840.16
7840.16
7840.16
7840.16
7840.16
7840.16
7840.16
7840.16
7840.16
7840.16
7840.16
7840.16
7840.16
7840.16
7840.16
7840.16
7840.16
7840.16
7840.16
7840.16
7840.16
7840.16
7840.16
7840.16
7840.16
7840.16
7840.16
7840.16
7840.16
7840.16
7840.16
7840.15
7840.15
7840.15
7840.15
7840.15
7840.15
7840.15
7840.15
7840.15
7840.15
7840.15
7840.15
7840.15
7840.15
7840.15
7840.15
7840.15
7840.15
7840.15
7840.15
7840.15
7840.15
7840.15
7840.15
7840.15
7840.15
7840.15
7840.15
7840.15
7840.15
7840.15
7840.15
7840.15
7840.15
7840.15
7840.15
7840.15
7840.15
7840.15
7840.15
7840.15
7840.15
7840.15
7840.15
7840.15
7840.15
7840.15
7840.15
7840.15
7840.15
7840.15
7840.15
7840.15
7840.15
7840.15
7840.15
7840.15
7840.15
7840.15
7840.15
7840.15
7840.15
7840.15
7840.15
7840.15
7840.15
7840.15
7840.15
7840.15
7840.15
7840.15
7840.15
7840.15
7840.15
7840.15
7840.15
7840.15
7840.15
7840.15
7840.15
7840.15
7840.15
7840.15
7840.15
7840.15
7840.15
7840.15
7840.15
7840.15
7840.15
7840.15
7840.15
7840.15
7757
7758.86
7760.47
7762.05
7763.61
7765.17
7766.71
7768.25
7769.77
7771.29
7772.79
7774.29
7775.78
7777.25
7778.72
7780.18
7781.62
7783.05
7784.46
7785.86
7787.24
7788.6
7789.93
7791.25
7792.55
7793.82
7795.08
7796.32
7797.53
7798.73
7799.91
7801.06
7802.19
7803.29
7804.37
7805.43
7806.46
7807.46
7808.44
7809.41
7810.35
7811.28
7812.19
7813.08
7813.95
7814.81
7815.64
7816.45
7817.24
7818.02
7818.77
7819.5
7820.22
7820.92
7821.61
7822.28
7822.93
7823.56
7824.18
7824.78
7825.37
7825.94
7826.49
7827.02
7827.54
7828.05
7828.54
7829.02
7829.47
7829.92
7830.35
7830.76
7831.15
7831.54
7831.91
7832.27
7832.62
7832.97
7833.3
7833.63
7833.95
7834.26
7834.56
7834.85
7835.14
7835.42
7835.69
7835.96
7836.22
7836.47
7836.72
7836.96
7837.19
7837.43
7837.67
7837.88
7838.06
7838.21
7838.53
7838.74
7838.91
7839.13
7839.31
7839.49
7839.65
7839.82
7839.98
7840.13
7840.27
7840.41
7840.55
7840.67
7840.79
7840.91
7841.02
7841.13
7841.24
7841.34
7841.43
7841.53
7841.61
7841.69
7841.77
7841.85
7841.92
7841.99
7842.05
7842.11
7842.17
7842.22
7842.27
7842.32
7842.36
7842.4
7842.44
7842.48
7842.51
7842.54
7842.57
7842.59
7842.61
7842.63
7842.65
7842.67
7842.68
7842.69
7842.7
7842.71
7842.71
7842.72
7842.72
7842.72
7842.72
7842.72
7842.72
7842.71
7842.71
7842.7
7842.7
7842.69
7842.68
7842.67
7842.66
7842.64
7842.63
7842.62
7842.6
7842.58
7842.57
7842.55
7842.53
7842.52
7842.5
7842.48
7842.46
7842.44
7842.42
7842.4
7842.37
7842.35
7842.33
7842.31
7842.28
7842.26
7842.24
7842.21
7842.19
7842.17
7842.14
7842.12
7842.09
7842.07
7842.05
7842.02
7842
7841.97
7841.95
7841.92
7841.9
7841.87
7841.85
7841.82
7841.8
7841.77
7841.75
7841.72
7841.7
7841.68
7841.65
7841.63
7841.6
7841.58
7841.56
7841.53
7841.51
7841.49
7841.46
7841.44
7841.42
7841.4
7841.37
7841.35
7841.33
7841.31
7841.29
7841.27
7841.25
7841.23
7841.21
7841.19
7841.17
7841.15
7841.13
7841.11
7841.09
7841.07
7841.05
7841.04
7841.02
7841
7840.98
7840.97
7840.95
7840.93
7840.92
7840.9
7840.89
7840.87
7840.86
7840.84
7840.83
7840.81
7840.8
7840.79
7840.77
7840.76
7840.75
7840.73
7840.72
7840.71
7840.7
7840.68
7840.67
7840.66
7840.65
7840.64
7840.63
7840.62
7840.61
7840.6
7840.59
7840.58
7840.57
7840.56
7840.55
7840.54
7840.53
7840.52
7840.52
7840.51
7840.5
7840.49
7840.48
7840.48
7840.47
7840.46
7840.46
7840.45
7840.44
7840.44
7840.43
7840.42
7840.42
7840.41
7840.41
7840.4
7840.4
7840.39
7840.39
7840.38
7840.38
7840.37
7840.37
7840.36
7840.36
7840.35
7840.35
7840.34
7840.34
7840.34
7840.33
7840.33
7840.32
7840.32
7840.32
7840.31
7840.31
7840.31
7840.3
7840.3
7840.3
7840.29
7840.29
7840.29
7840.29
7840.28
7840.28
7840.28
7840.27
7840.27
7840.27
7840.27
7840.26
7840.26
7840.26
7840.26
7840.25
7840.25
7840.25
7840.25
7840.25
7840.24
7840.24
7840.24
7840.24
7840.24
7840.23
7840.23
7840.23
7840.23
7840.23
7840.22
7840.22
7840.22
7840.22
7840.22
7840.22
7840.21
7840.21
7840.21
7840.21
7840.21
7840.21
7840.21
7840.2
7840.2
7840.2
7840.2
7840.2
7840.2
7840.2
7840.19
7840.19
7840.19
7840.19
7840.19
7840.19
7840.19
7840.19
7840.19
7840.18
7840.18