/*--------------------------------*- C++ -*----------------------------------*\
| =========                 |                                                 |
| \\      /  F ield         | OpenFOAM: The Open Source CFD Toolbox           |
|  \\    /   O peration     | Version:  v2006                                 |
|   \\  /    A nd           | Website:  www.openfoam.com                      |
|    \\/     M anipulation  |                                                 |
\*---------------------------------------------------------------------------*/
FoamFile
{
    version     2.0;
    format      ascii;
    class       surfaceScalarField;
    location    "1.2";
    object      alphaPhi0.water;
}
// * * * * * * * * * * * * * * * * * * * * * * * * * * * * * * * * * * * * * //

dimensions      [0 3 -1 0 0 0 0];
oriented        oriented;


internalField   nonuniform List<scalar> 
65390
(
-2.41022e-06
-9.88153e-08
-2.52882e-06
1.3018e-07
-2.66712e-06
1.49185e-07
-2.78553e-06
1.27047e-07
-2.93019e-06
1.51962e-07
-3.09629e-06
1.72502e-07
-3.26533e-06
1.74511e-07
-3.43631e-06
1.75785e-07
-3.61006e-06
1.7814e-07
-3.78404e-06
1.78042e-07
-3.9602e-06
1.79997e-07
-4.14068e-06
1.84219e-07
-4.32505e-06
1.88078e-07
-4.5251e-06
2.03732e-07
-4.72548e-06
2.04249e-07
-4.92531e-06
2.03666e-07
-5.12634e-06
2.04965e-07
-5.32762e-06
2.05412e-07
-5.52928e-06
2.05941e-07
-5.7333e-06
2.08631e-07
-5.9399e-06
2.11608e-07
-6.1482e-06
2.13358e-07
-6.35445e-06
2.11151e-07
-6.55405e-06
2.04556e-07
-6.74858e-06
1.99935e-07
-6.94566e-06
2.02787e-07
-7.14212e-06
2.02261e-07
-7.33482e-06
1.9854e-07
-7.52175e-06
1.92748e-07
-7.70879e-06
1.92846e-07
-7.89562e-06
1.92615e-07
-8.07708e-06
1.87096e-07
-8.24427e-06
1.72675e-07
-8.40215e-06
1.63608e-07
-8.56346e-06
1.67106e-07
-8.72187e-06
1.64111e-07
-8.87054e-06
1.53638e-07
-9.00542e-06
1.38229e-07
-9.1358e-06
1.3298e-07
-9.27013e-06
1.36826e-07
-9.40283e-06
1.35034e-07
-9.52947e-06
1.29143e-07
-9.63519e-06
1.08427e-07
-9.72858e-06
9.54836e-08
-9.82219e-06
9.59514e-08
-9.91841e-06
9.91843e-08
-9.99742e-06
8.19133e-08
-1.0057e-05
6.20759e-08
-1.01096e-05
5.51218e-08
-1.01625e-05
5.53377e-08
-1.0207e-05
4.68142e-08
-1.02338e-05
2.89117e-08
-1.02473e-05
1.55382e-08
-1.02504e-05
4.87985e-09
-1.02509e-05
2.26643e-09
-1.02473e-05
-1.88243e-09
-1.02363e-05
-9.39352e-09
-1.02184e-05
-1.64636e-08
-1.01995e-05
-1.75461e-08
-1.01767e-05
-2.16448e-08
-1.01446e-05
-3.10837e-08
-1.01027e-05
-4.10016e-08
-1.00549e-05
-4.70875e-08
-9.99995e-06
-5.43193e-08
-9.93412e-06
-6.53814e-08
-9.85494e-06
-7.87857e-08
-9.76104e-06
-9.34731e-08
-9.65118e-06
-1.09377e-07
-9.52401e-06
-1.26616e-07
-9.37716e-06
-1.46241e-07
-9.20477e-06
-1.71736e-07
-8.99824e-06
-2.05699e-07
-8.74486e-06
-2.52348e-07
-8.41936e-06
-3.24494e-07
-7.98538e-06
-4.33152e-07
-7.38974e-06
-5.9498e-07
-6.50634e-06
-8.82664e-07
-5.2412e-06
-1.26239e-06
-4.21077e-06
-1.02957e-06
-3.83711e-06
-3.72635e-07
-3.66548e-06
-1.71292e-07
-3.70487e-06
3.98811e-08
-3.7047e-06
1.67348e-10
-3.7537e-06
4.95505e-08
-3.82336e-06
7.0482e-08
-3.78587e-06
-3.64738e-08
-3.74889e-06
-3.61617e-08
-3.72733e-06
-2.06864e-08
-3.72373e-06
-2.58827e-09
-3.71161e-06
-1.08963e-08
-3.7031e-06
-7.1148e-09
-3.69117e-06
-1.07158e-08
-3.66709e-06
-2.27991e-08
-3.63912e-06
-2.63672e-08
-3.60516e-06
-3.241e-08
-3.56104e-06
-4.26139e-08
-3.50536e-06
-5.42047e-08
-3.43469e-06
-6.92428e-08
-3.33055e-06
-1.02696e-07
-3.23425e-06
-9.49818e-08
-3.17733e-06
-5.5766e-08
-3.14886e-06
-2.73133e-08
-3.13107e-06
-1.66764e-08
-3.10078e-06
-2.9252e-08
-3.07508e-06
-2.47122e-08
-3.04814e-06
-2.59645e-08
-3.01354e-06
-3.36823e-08
-2.97779e-06
-3.4894e-08
-2.9423e-06
-3.47142e-08
-2.9066e-06
-3.50239e-08
-2.86882e-06
-3.71645e-08
-2.8293e-06
-3.89392e-08
-2.78692e-06
-4.18346e-08
-2.74007e-06
-4.63328e-08
-2.68707e-06
-5.2431e-08
-2.62471e-06
-6.17258e-08
-2.5397e-06
-8.42906e-08
-2.45978e-06
-7.90928e-08
-2.40725e-06
-5.16145e-08
-2.37539e-06
-3.0869e-08
-2.35136e-06
-2.30285e-08
-2.31866e-06
-3.16955e-08
-2.28895e-06
-2.87345e-08
-2.25936e-06
-2.8668e-08
-2.2261e-06
-3.24205e-08
-2.193e-06
-3.23731e-08
-2.16001e-06
-3.23657e-08
-2.12626e-06
-3.32627e-08
-2.09227e-06
-3.36082e-08
-2.05815e-06
-3.3865e-08
-2.02381e-06
-3.41833e-08
-1.98937e-06
-3.43659e-08
-1.95489e-06
-3.44651e-08
-1.92036e-06
-3.45258e-08
-1.8858e-06
-3.45685e-08
-1.85121e-06
-3.4563e-08
-1.81665e-06
-3.4487e-08
-1.78217e-06
-3.43578e-08
-1.74774e-06
-3.42456e-08
-1.71338e-06
-3.41053e-08
-1.67906e-06
-3.39947e-08
-1.64483e-06
-3.38512e-08
-1.6107e-06
-3.3676e-08
-1.5767e-06
-3.34941e-08
-1.54282e-06
-3.33221e-08
-1.50909e-06
-3.3134e-08
-1.47554e-06
-3.29079e-08
-1.44221e-06
-3.26483e-08
-1.4091e-06
-3.24053e-08
-1.37624e-06
-3.21325e-08
-1.34366e-06
-3.18422e-08
-1.31137e-06
-3.15444e-08
-1.27941e-06
-3.12221e-08
-1.2478e-06
-3.08766e-08
-1.21656e-06
-3.05076e-08
-1.18568e-06
-3.01431e-08
-1.15519e-06
-2.97691e-08
-1.12509e-06
-2.93839e-08
-1.09539e-06
-2.90001e-08
-1.06609e-06
-2.86026e-08
-1.03721e-06
-2.81919e-08
-1.00876e-06
-2.77877e-08
-9.80702e-07
-2.73976e-08
-9.53056e-07
-2.6999e-08
-9.25831e-07
-2.65868e-08
-8.99027e-07
-2.61753e-08
-8.72628e-07
-2.57801e-08
-8.46634e-07
-2.53849e-08
-8.21054e-07
-2.4981e-08
-7.95903e-07
-2.45639e-08
-7.71166e-07
-2.41617e-08
-7.46828e-07
-2.37727e-08
-7.22903e-07
-2.33702e-08
-6.994e-07
-2.2955e-08
-6.76309e-07
-2.25501e-08
-6.53622e-07
-2.21527e-08
-6.3135e-07
-2.17436e-08
-6.09501e-07
-2.13275e-08
-5.88066e-07
-2.0922e-08
-5.67045e-07
-2.05207e-08
-5.46446e-07
-2.01108e-08
-5.26273e-07
-1.96972e-08
-5.06515e-07
-1.92928e-08
-4.87167e-07
-1.88934e-08
-4.68233e-07
-1.84869e-08
-4.49715e-07
-1.80763e-08
-4.31606e-07
-1.76722e-08
-4.13902e-07
-1.72732e-08
-3.96607e-07
-1.68722e-08
-3.79727e-07
-1.64675e-08
-3.6326e-07
-1.60658e-08
-3.47198e-07
-1.56717e-08
-3.31535e-07
-1.5282e-08
-3.16271e-07
-1.48915e-08
-3.01406e-07
-1.44995e-08
-2.86934e-07
-1.41106e-08
-2.72852e-07
-1.37256e-08
-2.5916e-07
-1.33423e-08
-2.45857e-07
-1.29617e-08
-2.32939e-07
-1.25862e-08
-2.204e-07
-1.22155e-08
-2.08236e-07
-1.1849e-08
-1.96439e-07
-1.14874e-08
-1.85002e-07
-1.11299e-08
-1.73921e-07
-1.07761e-08
-1.63189e-07
-1.04298e-08
-1.52797e-07
-1.00947e-08
-1.42739e-07
-9.77006e-09
-1.33006e-07
-9.45665e-09
-1.23588e-07
-9.15676e-09
-1.14478e-07
-8.86335e-09
-1.0568e-07
-8.56327e-09
-9.71995e-08
-8.2549e-09
-8.90297e-08
-7.9472e-09
-8.11631e-08
-7.64334e-09
-7.35991e-08
-7.33801e-09
-6.63353e-08
-7.03567e-09
-5.93587e-08
-6.7491e-09
-5.26539e-08
-6.4816e-09
-4.62155e-08
-6.22297e-09
-4.00428e-08
-5.96713e-09
-3.41277e-08
-5.71901e-09
-2.8459e-08
-5.48024e-09
-2.30325e-08
-5.243e-09
-1.78482e-08
-5.0035e-09
-1.29003e-08
-4.76912e-09
-8.17567e-09
-4.54836e-09
-3.66389e-09
-4.33979e-09
6.4067e-10
-4.13852e-09
4.7442e-09
-3.94446e-09
8.65618e-09
-3.75979e-09
1.23847e-08
-3.58235e-09
1.59344e-08
-3.40835e-09
1.93093e-08
-3.23789e-09
2.25126e-08
-3.07062e-09
2.55446e-08
-2.90464e-09
2.84051e-08
-2.73905e-09
3.10989e-08
-2.57846e-09
3.36378e-08
-2.42823e-09
3.60351e-08
-2.28866e-09
3.83005e-08
-2.15576e-09
4.04402e-08
-2.02621e-09
4.24576e-08
-1.89891e-09
4.43538e-08
-1.77361e-09
4.61298e-08
-1.65187e-09
4.77875e-08
-1.53605e-09
4.93319e-08
-1.42917e-09
5.07672e-08
-1.32928e-09
5.20932e-08
-1.23043e-09
5.33094e-08
-1.13016e-09
5.44219e-08
-1.03364e-09
5.54461e-08
-9.49611e-10
5.63951e-08
-8.76091e-10
5.72728e-08
-8.04859e-10
5.80766e-08
-7.30322e-10
5.88077e-08
-6.57893e-10
5.94769e-08
-5.97346e-10
6.00958e-08
-5.49828e-10
6.0667e-08
-5.05659e-10
6.11817e-08
-4.53035e-10
6.16364e-08
-3.96379e-10
6.20281e-08
-3.35769e-10
6.23584e-08
-2.75895e-10
6.26288e-08
-2.16675e-10
6.28412e-08
-1.59069e-10
6.29996e-08
-1.05577e-10
6.31079e-08
-5.63776e-11
6.31681e-08
-9.97372e-12
6.31841e-08
3.21541e-11
6.31633e-08
6.64272e-11
6.3113e-08
9.35339e-11
6.30349e-08
1.19139e-10
6.29271e-08
1.46938e-10
6.27886e-08
1.76234e-10
6.26194e-08
2.05779e-10
6.24184e-08
2.36511e-10
6.21832e-08
2.69427e-10
6.1912e-08
3.03922e-10
6.16032e-08
3.39631e-10
6.12546e-08
3.77022e-10
6.08657e-08
4.1456e-10
6.04413e-08
4.47065e-10
5.99917e-08
4.6939e-10
5.95277e-08
4.81033e-10
5.90573e-08
4.8522e-10
5.85855e-08
4.84901e-10
5.81169e-08
4.80757e-10
5.76559e-08
4.72601e-10
5.72059e-08
4.61755e-10
5.67669e-08
4.51213e-10
5.63357e-08
4.44244e-10
5.59072e-08
4.42345e-10
5.54761e-08
4.45739e-10
5.50354e-08
4.56005e-10
5.45777e-08
4.73429e-10
5.40977e-08
4.95914e-10
5.35937e-08
5.19698e-10
5.30677e-08
5.41427e-10
5.25226e-08
5.59788e-10
5.19613e-08
5.75139e-10
5.13863e-08
5.87775e-10
5.08013e-08
5.96705e-10
5.02115e-08
6.002e-10
4.96238e-08
5.9705e-10
4.90445e-08
5.87404e-10
4.84786e-08
5.73095e-10
4.79281e-08
5.56656e-10
4.73933e-08
5.40324e-10
4.68725e-08
5.25627e-10
4.63633e-08
5.13574e-10
4.58625e-08
5.0481e-10
4.53668e-08
4.99379e-10
4.48733e-08
4.96937e-10
4.438e-08
4.96461e-10
4.38865e-08
4.96498e-10
4.33938e-08
4.95575e-10
4.29039e-08
4.92485e-10
4.24198e-08
4.86649e-10
4.19438e-08
4.78353e-10
4.14774e-08
4.68676e-10
4.10207e-08
4.58745e-10
4.05738e-08
4.48874e-10
4.0137e-08
4.38666e-10
3.97103e-08
4.28291e-10
3.92918e-08
4.19994e-10
3.88752e-08
4.17899e-10
3.84518e-08
4.24603e-10
3.80155e-08
4.37294e-10
3.7567e-08
4.49289e-10
3.71124e-08
4.55282e-10
3.66574e-08
4.55556e-10
3.62045e-08
4.53245e-10
3.57564e-08
4.48342e-10
3.53197e-08
4.36756e-10
3.4903e-08
4.16649e-10
3.45089e-08
3.9386e-10
3.41303e-08
3.78312e-10
3.37562e-08
3.7359e-10
3.33813e-08
3.74338e-10
3.30046e-08
3.75885e-10
3.26238e-08
3.80039e-10
3.22325e-08
3.90342e-10
3.18269e-08
4.04581e-10
3.14102e-08
4.15524e-10
3.09898e-08
4.1915e-10
3.05708e-08
4.17717e-10
3.01555e-08
4.13865e-10
2.97473e-08
4.06646e-10
2.93496e-08
3.95982e-10
2.8962e-08
3.85963e-10
2.85797e-08
3.80526e-10
2.81981e-08
3.7984e-10
2.7813e-08
3.83318e-10
2.74194e-08
3.9182e-10
2.70136e-08
4.04001e-10
2.65974e-08
4.14295e-10
2.61775e-08
4.17808e-10
2.57603e-08
4.14935e-10
2.53492e-08
4.0856e-10
2.49471e-08
3.99588e-10
2.45564e-08
3.88013e-10
2.4177e-08
3.76812e-10
2.38033e-08
3.7107e-10
2.34275e-08
3.73278e-10
2.3044e-08
3.81085e-10
2.26516e-08
3.90127e-10
2.22519e-08
3.97419e-10
2.18481e-08
4.01489e-10
2.14451e-08
4.00747e-10
2.1049e-08
3.9373e-10
2.06654e-08
3.81173e-10
2.02962e-08
3.66836e-10
1.99385e-08
3.55304e-10
1.95872e-08
3.48813e-10
1.92387e-08
3.4606e-10
1.8892e-08
3.44289e-10
1.8547e-08
3.42495e-10
1.82032e-08
3.4117e-10
1.7862e-08
3.38608e-10
1.75286e-08
3.30674e-10
1.72097e-08
3.16106e-10
1.69073e-08
2.99429e-10
1.66172e-08
2.87187e-10
1.63313e-08
2.82756e-10
1.60422e-08
2.86054e-10
1.5745e-08
2.94202e-10
1.54402e-08
3.01878e-10
1.51333e-08
3.04106e-10
1.48311e-08
2.99622e-10
1.45383e-08
2.90263e-10
1.42566e-08
2.7922e-10
1.39834e-08
2.70845e-10
1.37118e-08
2.69095e-10
1.34347e-08
2.74687e-10
1.31469e-08
2.85225e-10
1.28473e-08
2.96998e-10
1.25391e-08
3.0551e-10
1.22304e-08
3.06108e-10
1.19314e-08
2.96598e-10
1.16483e-08
2.80754e-10
1.13793e-08
2.66882e-10
1.11164e-08
2.60835e-10
1.08536e-08
2.6098e-10
1.05902e-08
2.61578e-10
1.03263e-08
2.62102e-10
1.00628e-08
2.61563e-10
9.80637e-09
2.54476e-10
9.56145e-09
2.42872e-10
9.32458e-09
2.34777e-10
9.08868e-09
2.33782e-10
8.84897e-09
2.37607e-10
8.60612e-09
2.40797e-10
8.36673e-09
2.37407e-10
8.13727e-09
2.27547e-10
7.91756e-09
2.1788e-10
7.70545e-09
2.10361e-10
7.49988e-09
2.03916e-10
7.2961e-09
2.02221e-10
7.09326e-09
2.01383e-10
6.89587e-09
1.96063e-10
6.70579e-09
1.88885e-10
6.51017e-09
1.94578e-10
6.30729e-09
2.01973e-10
6.09651e-09
2.10005e-10
5.88568e-09
2.10161e-10
5.69919e-09
1.85903e-10
5.52066e-09
1.77974e-10
5.35641e-09
1.63687e-10
5.21962e-09
1.36177e-10
5.11014e-09
1.08778e-10
5.01508e-09
9.41966e-11
4.91522e-09
9.88304e-11
4.83859e-09
7.53948e-11
4.76432e-09
7.28329e-11
4.68787e-09
7.48214e-11
4.59254e-09
9.35344e-11
4.48952e-09
1.01089e-10
4.39589e-09
9.1606e-11
4.30191e-09
9.18883e-11
4.23843e-09
6.13486e-11
4.15711e-09
7.91759e-11
4.03492e-09
1.20056e-10
3.91887e-09
1.13932e-10
3.81016e-09
1.06635e-10
3.72894e-09
7.9182e-11
3.63736e-09
8.95767e-11
3.55624e-09
7.91522e-11
3.51144e-09
4.28681e-11
3.48736e-09
2.21825e-11
3.4922e-09
-6.69497e-12
3.45588e-09
3.45336e-11
3.45201e-09
2.16738e-12
3.40714e-09
4.32469e-11
3.35366e-09
5.19365e-11
3.27307e-09
7.91218e-11
3.22046e-09
5.11937e-11
3.21854e-09
5.29865e-13
3.15361e-09
6.35415e-11
3.14793e-09
4.30503e-12
3.16298e-09
-1.64285e-11
3.11728e-09
4.43488e-11
3.06116e-09
5.48019e-11
2.91626e-09
1.43646e-10
2.86582e-09
4.92307e-11
2.75206e-09
1.12591e-10
2.64828e-09
1.02627e-10
2.75983e-09
-1.12671e-10
2.8298e-09
-7.15998e-11
3.48994e-09
-6.61685e-10
4.06116e-09
-5.73145e-10
4.21147e-09
-1.52927e-10
4.32635e-09
-1.17254e-10
4.30344e-09
2.06183e-11
4.22719e-09
7.40214e-11
4.11986e-09
1.05157e-10
3.96405e-09
1.53661e-10
3.75128e-09
2.10632e-10
3.50131e-09
2.47811e-10
3.2308e-09
2.68333e-10
2.9454e-09
2.8319e-10
2.66577e-09
2.77397e-10
2.41971e-09
2.43809e-10
2.21269e-09
2.04761e-10
2.02304e-09
1.87379e-10
1.82679e-09
1.93972e-10
1.62613e-09
1.98388e-10
1.44076e-09
1.83087e-10
1.28502e-09
1.53475e-10
1.15716e-09
1.25611e-10
1.04555e-09
1.09388e-10
9.33232e-10
1.10132e-10
8.04853e-10
1.2622e-10
6.51989e-10
1.50736e-10
4.743e-10
1.75582e-10
2.78307e-10
1.93902e-10
7.39017e-11
2.02321e-10
-1.28411e-10
2.0023e-10
-3.18392e-10
1.87897e-10
-4.8136e-10
1.60879e-10
-6.03562e-10
1.20111e-10
-6.6754e-10
6.18879e-11
-6.61486e-10
-8.13564e-12
-5.78101e-10
-8.54509e-11
-4.23933e-10
-1.56206e-10
-2.13652e-10
-2.12284e-10
3.29752e-11
-2.48585e-10
2.96776e-10
-2.6571e-10
5.62397e-10
-2.67484e-10
8.18913e-10
-2.5834e-10
1.05735e-09
-2.40235e-10
1.26675e-09
-2.11182e-10
1.43348e-09
-1.68516e-10
1.54548e-09
-1.13786e-10
1.60095e-09
-5.72592e-11
1.61047e-09
-1.13188e-11
1.59864e-09
1.00483e-11
1.59105e-09
5.81292e-12
1.60805e-09
-1.87489e-11
1.6697e-09
-6.33834e-11
1.79306e-09
-1.25075e-10
1.97875e-09
-1.87404e-10
2.20237e-09
-2.25337e-10
2.40654e-09
-2.05889e-10
2.52678e-09
-1.21977e-10
2.5449e-09
-1.98608e-11
2.52007e-09
2.30928e-11
2.55579e-09
-3.74539e-11
2.71849e-09
-1.64421e-10
2.92571e-09
-2.08932e-10
3.00107e-09
-7.7049e-11
2.84375e-09
1.55647e-10
2.53028e-09
3.11796e-10
2.28523e-09
2.43386e-10
2.2529e-09
3.06749e-11
2.26579e-09
-1.45425e-11
2.1056e-09
1.58544e-10
1.76868e-09
3.3528e-10
1.53196e-09
2.35095e-10
1.60012e-09
-6.9785e-11
1.75782e-09
-1.59322e-10
1.74103e-09
1.51315e-11
1.70648e-09
3.28681e-11
1.93016e-09
-2.25393e-10
2.28988e-09
-3.61465e-10
2.34231e-09
-5.41644e-11
2.17371e-09
1.66899e-10
2.0891e-09
8.29811e-11
1.8e-09
2.87542e-10
1.52777e-09
2.70674e-10
5.79491e-10
-2.56585e-06
-4.69885e-08
-2.68036e-06
2.32644e-07
-2.80106e-06
2.60705e-07
-2.9406e-06
2.60018e-07
-3.08985e-06
2.967e-07
-3.24095e-06
3.20929e-07
-3.39513e-06
3.27485e-07
-3.55466e-06
3.3531e-07
-3.7194e-06
3.43905e-07
-3.88917e-06
3.49751e-07
-4.06565e-06
3.59223e-07
-4.24845e-06
3.70582e-07
-4.43723e-06
3.81185e-07
-4.62981e-06
4.0094e-07
-4.82572e-06
4.05463e-07
-5.02539e-06
4.09092e-07
-5.22652e-06
4.12246e-07
-5.42701e-06
4.12475e-07
-5.62927e-06
4.15142e-07
-5.83171e-06
4.18574e-07
-6.03052e-06
4.2024e-07
-6.2308e-06
4.21778e-07
-6.43059e-06
4.1885e-07
-6.63046e-06
4.11508e-07
-6.82262e-06
4.03674e-07
-7.01277e-06
4.0239e-07
-7.19881e-06
3.97942e-07
-7.38656e-06
3.96065e-07
-7.57265e-06
3.8899e-07
-7.7545e-06
3.84838e-07
-7.94506e-06
3.93138e-07
-8.13891e-06
3.90545e-07
-8.3209e-06
3.64661e-07
-8.46606e-06
3.184e-07
-8.60422e-06
3.14229e-07
-8.75442e-06
3.22651e-07
-8.9078e-06
3.16538e-07
-9.06333e-06
2.99309e-07
-9.19142e-06
2.70934e-07
-9.30311e-06
2.56117e-07
-9.41836e-06
2.57606e-07
-9.53532e-06
2.5236e-07
-9.63813e-06
2.19794e-07
-9.73017e-06
1.93435e-07
-9.8145e-06
1.87397e-07
-9.89748e-06
1.88942e-07
-9.97625e-06
1.65768e-07
-1.00482e-05
1.39549e-07
-1.01117e-05
1.24484e-07
-1.01682e-05
1.17592e-07
-1.02149e-05
9.85378e-08
-1.02508e-05
6.94357e-08
-1.02777e-05
4.70202e-08
-1.02936e-05
2.53105e-08
-1.02991e-05
1.24068e-08
-1.02981e-05
1.38191e-09
-1.02896e-05
-1.4189e-08
-1.02726e-05
-2.99298e-08
-1.02506e-05
-3.60295e-08
-1.02234e-05
-4.56037e-08
-1.01899e-05
-6.22859e-08
-1.01481e-05
-8.10298e-08
-1.00992e-05
-9.40277e-08
-1.0047e-05
-1.04647e-07
-9.98439e-06
-1.26411e-07
-9.90536e-06
-1.5647e-07
-9.81396e-06
-1.83789e-07
-9.7089e-06
-2.13384e-07
-9.58806e-06
-2.45511e-07
-9.45314e-06
-2.80173e-07
-9.30397e-06
-3.1981e-07
-9.13494e-06
-3.723e-07
-8.94781e-06
-4.38057e-07
-8.74501e-06
-5.2588e-07
-8.53542e-06
-6.40515e-07
-8.34214e-06
-7.86493e-07
-8.23267e-06
-9.89986e-07
-8.2696e-06
-1.22511e-06
-7.99997e-06
-1.2982e-06
-7.06165e-06
-1.30898e-06
-5.77339e-06
-1.45776e-06
-4.58774e-06
-1.14491e-06
-4.09971e-06
-4.86827e-07
-3.81751e-06
-2.30935e-07
-3.73517e-06
-1.13693e-08
-3.6872e-06
-8.26727e-08
-3.66714e-06
-5.5422e-08
-3.71573e-06
2.98662e-08
-3.78377e-06
6.68047e-08
-3.75194e-06
-4.12832e-08
-3.721e-06
-3.5573e-08
-3.70014e-06
-2.96913e-08
-3.67305e-06
-4.80755e-08
-3.6506e-06
-4.71963e-08
-3.62607e-06
-5.48235e-08
-3.5931e-06
-7.35373e-08
-3.5605e-06
-8.47156e-08
-3.52993e-06
-9.80932e-08
-3.51168e-06
-1.19273e-07
-3.47944e-06
-1.2575e-07
-3.41164e-06
-1.22059e-07
-3.29945e-06
-1.38195e-07
-3.19051e-06
-1.24406e-07
-3.12568e-06
-9.29854e-08
-3.08282e-06
-6.64655e-08
-3.05263e-06
-5.52003e-08
-3.01496e-06
-7.0517e-08
-2.97756e-06
-7.1586e-08
-2.94484e-06
-6.68513e-08
-2.9124e-06
-6.69785e-08
-2.87474e-06
-7.44076e-08
-2.83678e-06
-7.65127e-08
-2.79783e-06
-7.98773e-08
-2.7583e-06
-8.53366e-08
-2.71938e-06
-9.07411e-08
-2.68233e-06
-9.8129e-08
-2.6558e-06
-1.09933e-07
-2.62074e-06
-1.12972e-07
-2.56151e-06
-1.09825e-07
-2.47179e-06
-1.19611e-07
-2.38415e-06
-1.09403e-07
-2.32765e-06
-8.69673e-08
-2.28834e-06
-6.69176e-08
-2.25881e-06
-5.7231e-08
-2.22408e-06
-6.63499e-08
-2.19176e-06
-6.41041e-08
-2.15976e-06
-6.39731e-08
-2.1253e-06
-6.7498e-08
-2.09104e-06
-6.77578e-08
-2.05732e-06
-6.78577e-08
-2.023e-06
-6.87944e-08
-1.98848e-06
-6.91883e-08
-1.95393e-06
-6.93593e-08
-1.9192e-06
-6.95755e-08
-1.8844e-06
-6.96389e-08
-1.84966e-06
-6.95287e-08
-1.81495e-06
-6.93067e-08
-1.78031e-06
-6.90237e-08
-1.7457e-06
-6.87566e-08
-1.71116e-06
-6.84291e-08
-1.67669e-06
-6.8124e-08
-1.64231e-06
-6.77616e-08
-1.60805e-06
-6.73516e-08
-1.57394e-06
-6.69221e-08
-1.53998e-06
-6.65054e-08
-1.50619e-06
-6.60624e-08
-1.47262e-06
-6.55585e-08
-1.43928e-06
-6.50123e-08
-1.40618e-06
-6.44844e-08
-1.37337e-06
-6.39067e-08
-1.34087e-06
-6.32923e-08
-1.30867e-06
-6.2679e-08
-1.27679e-06
-6.20329e-08
-1.24526e-06
-6.13419e-08
-1.21408e-06
-6.06214e-08
-1.18326e-06
-5.99088e-08
-1.1528e-06
-5.91796e-08
-1.12273e-06
-5.84242e-08
-1.09305e-06
-5.76598e-08
-1.06377e-06
-5.68773e-08
-1.03489e-06
-5.60793e-08
-1.00642e-06
-5.52771e-08
-9.78372e-07
-5.44834e-08
-9.50735e-07
-5.36873e-08
-9.23498e-07
-5.28863e-08
-8.96665e-07
-5.20843e-08
-8.70241e-07
-5.12937e-08
-8.44228e-07
-5.04994e-08
-8.18634e-07
-4.96916e-08
-7.93465e-07
-4.88625e-08
-7.68722e-07
-4.80478e-08
-7.444e-07
-4.72503e-08
-7.20498e-07
-4.64398e-08
-6.97015e-07
-4.56175e-08
-6.73946e-07
-4.48111e-08
-6.51285e-07
-4.40166e-08
-6.29036e-07
-4.32079e-08
-6.07202e-07
-4.23894e-08
-5.8578e-07
-4.15851e-08
-5.64766e-07
-4.079e-08
-5.44162e-07
-3.9983e-08
-5.23975e-07
-3.91662e-08
-5.04205e-07
-3.83572e-08
-4.84851e-07
-3.75534e-08
-4.65919e-07
-3.67375e-08
-4.47411e-07
-3.5914e-08
-4.29323e-07
-3.5102e-08
-4.11647e-07
-3.43039e-08
-3.94379e-07
-3.35049e-08
-3.77528e-07
-3.26957e-08
-3.61097e-07
-3.18849e-08
-3.45083e-07
-3.10843e-08
-3.2948e-07
-3.02917e-08
-3.14287e-07
-2.95014e-08
-2.99495e-07
-2.87159e-08
-2.85094e-07
-2.79451e-08
-2.71076e-07
-2.71863e-08
-2.57442e-07
-2.64292e-08
-2.44193e-07
-2.56751e-08
-2.31323e-07
-2.4932e-08
-2.18825e-07
-2.42002e-08
-2.06697e-07
-2.34769e-08
-1.94932e-07
-2.27634e-08
-1.83524e-07
-2.20597e-08
-1.7247e-07
-2.13639e-08
-1.61764e-07
-2.0679e-08
-1.51405e-07
-2.00078e-08
-1.4139e-07
-1.93486e-08
-1.31717e-07
-1.87033e-08
-1.22377e-07
-1.80789e-08
-1.13359e-07
-1.74716e-08
-1.04652e-07
-1.68665e-08
-9.62503e-08
-1.62591e-08
-8.81453e-08
-1.56604e-08
-8.03291e-08
-1.50737e-08
-7.2798e-08
-1.44901e-08
-6.55517e-08
-1.39111e-08
-5.85882e-08
-1.3351e-08
-5.19037e-08
-1.28145e-08
-4.5496e-08
-1.22894e-08
-3.93623e-08
-1.17691e-08
-3.34945e-08
-1.12635e-08
-2.78791e-08
-1.0779e-08
-2.25023e-08
-1.03084e-08
-1.73539e-08
-9.8449e-09
-1.24254e-08
-9.3952e-09
-7.70942e-09
-8.9676e-09
-3.20247e-09
-8.55721e-09
1.09478e-09
-8.15497e-09
5.18261e-09
-7.76112e-09
9.06557e-09
-7.3812e-09
1.27516e-08
-7.01551e-09
1.62514e-08
-6.66237e-09
1.95774e-08
-6.32343e-09
2.27429e-08
-5.9997e-09
2.57574e-08
-5.68567e-09
2.86249e-08
-5.37582e-09
3.13464e-08
-5.07242e-09
3.39223e-08
-4.78027e-09
3.63526e-08
-4.49979e-09
3.86388e-08
-4.22823e-09
4.07847e-08
-3.96489e-09
4.27961e-08
-3.71045e-09
4.46778e-08
-3.46359e-09
4.64316e-08
-3.22263e-09
4.80607e-08
-2.99091e-09
4.95731e-08
-2.7755e-09
5.09808e-08
-2.57778e-09
5.22938e-08
-2.38971e-09
5.35167e-08
-2.20285e-09
5.46504e-08
-2.01923e-09
5.56958e-08
-1.84832e-09
5.66591e-08
-1.694e-09
5.75455e-08
-1.54815e-09
5.83562e-08
-1.40132e-09
5.90898e-08
-1.25645e-09
5.97475e-08
-1.1258e-09
6.03351e-08
-1.01434e-09
6.08596e-08
-9.12823e-10
6.13251e-08
-8.06229e-10
6.17318e-08
-6.94588e-10
6.2085e-08
-5.83397e-10
6.23889e-08
-4.76308e-10
6.26448e-08
-3.71008e-10
6.28525e-08
-2.67244e-10
6.30135e-08
-1.69583e-10
6.3131e-08
-8.01962e-11
6.32076e-08
3.49531e-12
6.32438e-08
8.19809e-11
6.32404e-08
1.52053e-10
6.31982e-08
2.14472e-10
6.3117e-08
2.75899e-10
6.29966e-08
3.40248e-10
6.28381e-08
4.0525e-10
6.26434e-08
4.68519e-10
6.24137e-08
5.31474e-10
6.215e-08
5.95096e-10
6.1855e-08
6.56975e-10
6.15328e-08
7.15239e-10
6.1187e-08
7.71404e-10
6.08185e-08
8.26338e-10
6.04283e-08
8.7571e-10
6.00184e-08
9.13133e-10
5.95927e-08
9.36854e-10
5.91547e-08
9.50488e-10
5.87071e-08
9.57976e-10
5.82524e-08
9.60037e-10
5.77935e-08
9.55975e-10
5.7333e-08
9.47446e-10
5.68715e-08
9.38957e-10
5.64079e-08
9.35213e-10
5.59405e-08
9.38321e-10
5.54673e-08
9.48298e-10
5.49872e-08
9.65989e-10
5.44991e-08
9.91517e-10
5.40015e-08
1.02301e-09
5.34932e-08
1.05653e-09
5.29739e-08
1.08801e-09
5.24441e-08
1.11517e-09
5.19053e-08
1.13761e-09
5.13596e-08
1.15516e-09
5.08092e-08
1.1666e-09
5.02568e-08
1.17004e-09
4.97051e-08
1.16424e-09
4.91564e-08
1.14979e-09
4.86123e-08
1.12918e-09
4.80739e-08
1.1057e-09
4.75413e-08
1.08234e-09
4.70143e-08
1.06113e-09
4.64922e-08
1.04321e-09
4.59749e-08
1.02907e-09
4.54622e-08
1.01854e-09
4.49541e-08
1.01098e-09
4.44509e-08
1.00524e-09
4.39526e-08
9.99904e-10
4.34596e-08
9.93417e-10
4.29725e-08
9.8422e-10
4.24922e-08
9.71195e-10
4.20201e-08
9.54344e-10
4.15571e-08
9.35343e-10
4.11022e-08
9.17042e-10
4.06523e-08
9.01798e-10
4.02037e-08
8.89955e-10
3.97543e-08
8.8013e-10
3.93044e-08
8.71926e-10
3.88559e-08
8.68159e-10
3.84091e-08
8.72882e-10
3.79618e-08
8.85729e-10
3.75121e-08
8.99793e-10
3.70618e-08
9.0617e-10
3.66155e-08
9.02121e-10
3.61765e-08
8.92175e-10
3.57443e-08
8.80318e-10
3.53169e-08
8.63588e-10
3.48954e-08
8.37322e-10
3.44823e-08
8.0587e-10
3.40768e-08
7.82457e-10
3.36736e-08
7.75213e-10
3.32677e-08
7.78435e-10
3.2859e-08
7.82475e-10
3.24505e-08
7.86258e-10
3.20429e-08
7.95443e-10
3.16343e-08
8.10454e-10
3.1224e-08
8.22891e-10
3.0814e-08
8.26087e-10
3.04058e-08
8.22554e-10
2.99994e-08
8.16878e-10
2.95942e-08
8.08175e-10
2.91909e-08
7.95585e-10
2.87888e-08
7.841e-10
2.83866e-08
7.78665e-10
2.79838e-08
7.78431e-10
2.75809e-08
7.81854e-10
2.71774e-08
7.90771e-10
2.67725e-08
8.04276e-10
2.63676e-08
8.1444e-10
2.59666e-08
8.13873e-10
2.55726e-08
8.03994e-10
2.51849e-08
7.91334e-10
2.48005e-08
7.79008e-10
2.44173e-08
7.6631e-10
2.40343e-08
7.54951e-10
2.36505e-08
7.50066e-10
2.32647e-08
7.54442e-10
2.28764e-08
7.64732e-10
2.24871e-08
7.74795e-10
2.20991e-08
7.80708e-10
2.17146e-08
7.81383e-10
2.13346e-08
7.76003e-10
2.09602e-08
7.63457e-10
2.0592e-08
7.44597e-10
2.02303e-08
7.2371e-10
1.98741e-08
7.0664e-10
1.95213e-08
6.96707e-10
1.91706e-08
6.91817e-10
1.88233e-08
6.86568e-10
1.84823e-08
6.78335e-10
1.81491e-08
6.69173e-10
1.78226e-08
6.59766e-10
1.75019e-08
6.45952e-10
1.71869e-08
6.2573e-10
1.68759e-08
6.04959e-10
1.6566e-08
5.91765e-10
1.62549e-08
5.88481e-10
1.59435e-08
5.92219e-10
1.56341e-08
5.9845e-10
1.53294e-08
6.0137e-10
1.50323e-08
5.96139e-10
1.47437e-08
5.8326e-10
1.44614e-08
5.67515e-10
1.41814e-08
5.54133e-10
1.38995e-08
5.47724e-10
1.36127e-08
5.50722e-10
1.33214e-08
5.60942e-10
1.30277e-08
5.73845e-10
1.27349e-08
5.84759e-10
1.24464e-08
5.8924e-10
1.21634e-08
5.84311e-10
1.18854e-08
5.70083e-10
1.16103e-08
5.51416e-10
1.13362e-08
5.36721e-10
1.10618e-08
5.31047e-10
1.07891e-08
5.29524e-10
1.05237e-08
5.22857e-10
1.02678e-08
5.13891e-10
1.00178e-08
5.07398e-10
9.76962e-09
4.98523e-10
9.52036e-09
4.8801e-10
9.27036e-09
4.80696e-10
9.02289e-09
4.7724e-10
8.78044e-09
4.76127e-10
8.54469e-09
4.72717e-10
8.31701e-09
4.61368e-10
8.09803e-09
4.4292e-10
7.88334e-09
4.29097e-10
7.66983e-09
4.20533e-10
7.4578e-09
4.12769e-10
7.24772e-09
4.09309e-10
7.03937e-09
4.06962e-10
6.83633e-09
3.96579e-10
6.63547e-09
3.87468e-10
6.4393e-09
3.88732e-10
6.256e-09
3.83475e-10
6.06999e-09
3.94412e-10
5.88453e-09
3.94135e-10
5.72801e-09
3.40986e-10
5.62007e-09
2.84448e-10
5.52397e-09
2.58216e-10
5.3952e-09
2.63185e-10
5.24433e-09
2.57655e-10
5.09565e-09
2.40579e-10
4.96962e-09
2.22256e-10
4.86006e-09
1.82036e-10
4.75219e-09
1.77477e-10
4.65439e-09
1.69136e-10
4.55119e-09
1.93023e-10
4.4529e-09
1.95509e-10
4.35464e-09
1.85879e-10
4.25943e-09
1.8305e-10
4.17563e-09
1.41085e-10
4.08637e-09
1.64382e-10
3.97904e-09
2.2337e-10
3.88709e-09
2.01916e-10
3.80074e-09
1.89062e-10
3.74756e-09
1.28495e-10
3.69131e-09
1.42022e-10
3.62928e-09
1.37443e-10
3.57764e-09
9.08583e-11
3.52938e-09
6.68958e-11
3.47111e-09
4.81691e-11
3.39552e-09
1.06856e-10
3.37257e-09
2.19875e-11
3.34063e-09
7.21878e-11
3.28218e-09
1.07505e-10
3.25949e-09
9.90139e-11
3.24924e-09
5.87057e-11
3.21881e-09
2.82543e-11
3.208e-09
7.16925e-11
3.15571e-09
5.3987e-11
3.02214e-09
1.14607e-10
2.99049e-09
7.35775e-11
2.93056e-09
1.1242e-10
2.80969e-09
2.62296e-10
2.97078e-09
-1.13997e-10
3.15318e-09
-7.25156e-11
3.92165e-09
-6.68473e-10
4.66379e-09
-8.58513e-10
5.09958e-09
-5.12023e-10
5.09103e-09
-6.57937e-10
4.73365e-09
-2.21291e-10
4.68327e-09
-1.07713e-10
4.63192e-09
-7.09123e-11
4.53333e-09
1.14341e-10
4.40347e-09
1.99136e-10
4.23289e-09
2.71081e-10
4.00856e-09
3.73391e-10
3.79106e-09
4.23542e-10
3.60678e-09
4.27509e-10
3.42139e-09
4.49128e-10
3.21618e-09
4.83803e-10
3.00591e-09
4.83091e-10
2.79884e-09
4.46311e-10
2.5854e-09
4.13667e-10
2.35823e-09
4.10027e-10
2.13295e-09
4.14753e-10
1.93189e-09
3.94972e-10
1.7658e-09
3.44714e-10
1.63288e-09
2.8196e-10
1.52192e-09
2.32158e-10
1.41591e-09
2.11025e-10
1.29961e-09
2.22106e-10
1.16247e-09
2.59078e-10
1.00453e-09
3.04438e-10
8.33476e-10
3.42441e-10
6.63653e-10
3.59565e-10
5.08496e-10
3.53348e-10
3.7664e-10
3.27982e-10
2.75475e-10
2.8498e-10
2.04047e-10
2.28248e-10
1.66443e-10
1.53679e-10
1.60764e-10
6.35569e-11
1.85172e-10
-3.65236e-11
2.36621e-10
-1.40845e-10
3.12092e-10
-2.35584e-10
4.12277e-10
-3.16332e-10
5.36725e-10
-3.7685e-10
6.85653e-10
-4.18406e-10
8.53729e-10
-4.3928e-10
1.03222e-09
-4.40508e-10
1.2069e-09
-4.1854e-10
1.36025e-09
-3.68116e-10
1.47781e-09
-2.89633e-10
1.5569e-09
-1.96403e-10
1.60428e-09
-1.08135e-10
1.64065e-09
-5.11665e-11
1.67875e-09
-3.15253e-11
1.72409e-09
-4.29781e-11
1.78246e-09
-8.0584e-11
1.85796e-09
-1.4234e-10
1.95777e-09
-2.28363e-10
2.09009e-09
-3.23211e-10
2.24386e-09
-3.82616e-10
2.38545e-09
-3.50994e-10
2.48384e-09
-2.23891e-10
2.542e-09
-8.15522e-11
2.59599e-09
-3.44263e-11
2.68481e-09
-1.29796e-10
2.77531e-09
-2.58438e-10
2.78947e-09
-2.26617e-10
2.67937e-09
2.95273e-11
2.49624e-09
3.35242e-10
2.38967e-09
4.14823e-10
2.42717e-09
2.02315e-10
2.44932e-09
4.93777e-12
2.33147e-09
9.9686e-11
2.07553e-09
4.10842e-10
1.92834e-09
4.78797e-10
2.00863e-09
1.51098e-10
2.07428e-09
-1.39188e-10
1.93413e-09
-2.29894e-11
1.81744e-09
1.27946e-10
1.92188e-09
-7.55148e-11
1.99742e-09
-3.04922e-10
1.79872e-09
-1.66741e-10
1.63276e-09
1.07859e-10
1.56056e-09
2.35257e-10
1.43591e-09
2.03887e-10
1.34998e-09
3.69788e-10
1.4444e-09
1.72535e-10
1.07513e-09
-2.46204e-06
-1.97151e-08
-2.64096e-06
4.16518e-07
-2.79483e-06
4.17596e-07
-2.96365e-06
4.30719e-07
-3.12513e-06
4.58928e-07
-3.27863e-06
4.74447e-07
-3.43408e-06
4.82276e-07
-3.59714e-06
4.97159e-07
-3.76645e-06
5.11599e-07
-3.94339e-06
5.24778e-07
-4.12845e-06
5.42296e-07
-4.31893e-06
5.59028e-07
-4.51519e-06
5.75464e-07
-4.70682e-06
5.90681e-07
-4.90459e-06
6.01499e-07
-5.10638e-06
6.09332e-07
-5.30717e-06
6.11733e-07
-5.5096e-06
6.13865e-07
-5.71317e-06
6.17984e-07
-5.91629e-06
6.21336e-07
-6.11737e-06
6.21426e-07
-6.3137e-06
6.18681e-07
-6.50861e-06
6.14797e-07
-6.7037e-06
6.08165e-07
-6.89889e-06
6.01111e-07
-7.086e-06
5.9244e-07
-7.26798e-06
5.83759e-07
-7.44939e-06
5.81775e-07
-7.63148e-06
5.75588e-07
-7.80711e-06
5.66179e-07
-7.98183e-06
5.74511e-07
-8.15557e-06
5.73176e-07
-8.3336e-06
5.47171e-07
-8.50156e-06
4.92566e-07
-8.65353e-06
4.74019e-07
-8.79514e-06
4.7575e-07
-8.9372e-06
4.68366e-07
-9.07967e-06
4.51374e-07
-9.20958e-06
4.11766e-07
-9.32403e-06
3.79858e-07
-9.42914e-06
3.73185e-07
-9.52615e-06
3.60598e-07
-9.62802e-06
3.30572e-07
-9.72931e-06
3.01577e-07
-9.81753e-06
2.82678e-07
-9.89186e-06
2.70599e-07
-9.96871e-06
2.49761e-07
-1.00481e-05
2.25964e-07
-1.01193e-05
2.02884e-07
-1.0176e-05
1.81379e-07
-1.0224e-05
1.53564e-07
-1.0268e-05
1.20827e-07
-1.03033e-05
8.90162e-08
-1.03274e-05
5.61001e-08
-1.03406e-05
3.1835e-08
-1.03414e-05
8.7512e-09
-1.03333e-05
-1.6801e-08
-1.03197e-05
-3.86315e-08
-1.02985e-05
-5.22702e-08
-1.02692e-05
-6.96197e-08
-1.02343e-05
-9.29084e-08
-1.0195e-05
-1.17951e-07
-1.01467e-05
-1.37011e-07
-1.00909e-05
-1.57505e-07
-1.00259e-05
-1.88707e-07
-9.95068e-06
-2.28678e-07
-9.86541e-06
-2.67837e-07
-9.7691e-06
-3.08824e-07
-9.6612e-06
-3.51547e-07
-9.54069e-06
-3.98765e-07
-9.41064e-06
-4.48656e-07
-9.27106e-06
-5.08984e-07
-9.12797e-06
-5.8054e-07
-8.9859e-06
-6.67769e-07
-8.85092e-06
-7.74876e-07
-8.74045e-06
-8.96376e-07
-8.70565e-06
-1.02404e-06
-8.78492e-06
-1.14412e-06
-8.84728e-06
-1.23533e-06
-8.79431e-06
-1.35991e-06
-8.75746e-06
-1.49512e-06