/*--------------------------------*- C++ -*----------------------------------*\
| =========                 |                                                 |
| \\      /  F ield         | OpenFOAM: The Open Source CFD Toolbox           |
|  \\    /   O peration     | Version:  v2006                                 |
|   \\  /    A nd           | Website:  www.openfoam.com                      |
|    \\/     M anipulation  |                                                 |
\*---------------------------------------------------------------------------*/
FoamFile
{
    version     2.0;
    format      ascii;
    class       volScalarField;
    location    "1.2";
    object      nut;
}
// * * * * * * * * * * * * * * * * * * * * * * * * * * * * * * * * * * * * * //

dimensions      [0 2 -1 0 0 0 0];


internalField   nonuniform List<scalar> 
33000
(
1.04042e-08
1.69864e-08
2.452e-08
2.45946e-08
2.46082e-08
2.46382e-08
2.46393e-08
2.2975e-08
2.14324e-08
2.00695e-08
1.88509e-08
1.77021e-08
1.66715e-08
1.56372e-08
1.46695e-08
1.38485e-08
1.30961e-08
1.2405e-08
1.1778e-08
1.12018e-08
1.0661e-08
1.01567e-08
9.69539e-09
9.29063e-09
8.92923e-09
8.58267e-09
8.25317e-09
7.95023e-09
7.67709e-09
7.41923e-09
7.16223e-09
6.91427e-09
6.69869e-09
6.52357e-09
6.35582e-09
6.18357e-09
6.01983e-09
5.88054e-09
5.7581e-09
5.63342e-09
5.51009e-09
5.3861e-09
5.27515e-09
5.18933e-09
5.1059e-09
5.00717e-09
4.91459e-09
4.84485e-09
4.78217e-09
4.7137e-09
4.64336e-09
4.58548e-09
4.53814e-09
4.49891e-09
4.46355e-09
4.42738e-09
4.39559e-09
4.37042e-09
4.34558e-09
4.31747e-09
4.29243e-09
4.27474e-09
4.26021e-09
4.24538e-09
4.23348e-09
4.22776e-09
4.22818e-09
4.23465e-09
4.24739e-09
4.26541e-09
4.28851e-09
4.31624e-09
4.34395e-09
4.36722e-09
4.37909e-09
4.35954e-09
4.3322e-09
4.37372e-09
5.48149e-09
6.55528e-09
6.52405e-09
7.49082e-09
7.4444e-09
8.49404e-09
8.59625e-09
8.74875e-09
8.82041e-09
8.74329e-09
8.46672e-09
8.36363e-09
8.4418e-09
8.42548e-09
8.44857e-09
8.46749e-09
8.46331e-09
8.48191e-09
8.51042e-09
8.54858e-09
8.5851e-09
9.06948e-09
9.20709e-09
9.15862e-09
9.31038e-09
9.28756e-09
9.47225e-09
9.50141e-09
9.5476e-09
9.61597e-09
9.66994e-09
9.71352e-09
9.7724e-09
9.84225e-09
9.91171e-09
9.98903e-09
1.00649e-08
1.01487e-08
1.02144e-08
1.07742e-08
1.09743e-08
1.09667e-08
1.12213e-08
1.12427e-08
1.1485e-08
1.1566e-08
1.16577e-08
1.17675e-08
1.18616e-08
1.19709e-08
1.20939e-08
1.22178e-08
1.23467e-08
1.24831e-08
1.26249e-08
1.27732e-08
1.29282e-08
1.30901e-08
1.32588e-08
1.34341e-08
1.35035e-08
1.34534e-08
1.34047e-08
1.33567e-08
1.33094e-08
1.32628e-08
1.32168e-08
1.31717e-08
1.31277e-08
1.30855e-08
1.30443e-08
1.30038e-08
1.29638e-08
1.29246e-08
1.28861e-08
1.28489e-08
1.28132e-08
1.27783e-08
1.27441e-08
1.27104e-08
1.26773e-08
1.2645e-08
1.2614e-08
1.25843e-08
1.25552e-08
1.25266e-08
1.24985e-08
1.24708e-08
1.24437e-08
1.24169e-08
1.23908e-08
1.23657e-08
1.23419e-08
1.23187e-08
1.22959e-08
1.22735e-08
1.22516e-08
1.22302e-08
1.221e-08
1.21907e-08
1.21718e-08
1.21533e-08
1.21351e-08
1.21172e-08
1.20996e-08
1.20825e-08
1.20663e-08
1.20512e-08
1.20364e-08
1.20219e-08
1.20077e-08
1.19938e-08
1.19804e-08
1.1968e-08
1.19562e-08
1.19448e-08
1.19336e-08
1.19226e-08
1.19118e-08
1.19013e-08
1.18918e-08
1.18829e-08
1.18743e-08
1.18658e-08
1.18574e-08
1.18492e-08
1.18412e-08
1.18336e-08
1.1827e-08
1.18206e-08
1.18143e-08
1.18082e-08
1.18021e-08
1.17961e-08
1.17904e-08
1.17852e-08
1.17806e-08
1.17761e-08
1.17716e-08
1.17671e-08
1.17626e-08
1.17583e-08
1.17542e-08
1.17508e-08
1.17475e-08
1.17442e-08
1.17409e-08
1.17375e-08
1.17341e-08
1.17308e-08
1.17275e-08
1.17247e-08
1.17222e-08
1.17198e-08
1.17173e-08
1.17147e-08
1.17122e-08
1.17095e-08
1.17069e-08
1.17042e-08
1.17017e-08
1.16996e-08
1.16976e-08
1.16956e-08
1.16935e-08
1.16914e-08
1.16893e-08
1.1687e-08
1.16847e-08
1.16824e-08
1.168e-08
1.16775e-08
1.1675e-08
1.16725e-08
1.16699e-08
1.16674e-08
1.16648e-08
1.16622e-08
1.16596e-08
1.1657e-08
1.16545e-08
1.16519e-08
1.16494e-08
1.16468e-08
1.16442e-08
1.16416e-08
1.1639e-08
1.16364e-08
1.16338e-08
1.16311e-08
1.16285e-08
1.16259e-08
1.16233e-08
1.16208e-08
1.16182e-08
1.16158e-08
1.16133e-08
1.16108e-08
1.16083e-08
1.16059e-08
1.16034e-08
1.16009e-08
1.15984e-08
1.15959e-08
1.15934e-08
1.1591e-08
1.15885e-08
1.15861e-08
1.15838e-08
1.15815e-08
1.15793e-08
1.15772e-08
1.15751e-08
1.1573e-08
1.1571e-08
1.15691e-08
1.15671e-08
1.15652e-08
1.15632e-08
1.15613e-08
1.15593e-08
1.15574e-08
1.15554e-08
1.15535e-08
1.15516e-08
1.15497e-08
1.15479e-08
1.15462e-08
1.15445e-08
1.15428e-08
1.15412e-08
1.15397e-08
1.15382e-08
1.15368e-08
1.15353e-08
1.15339e-08
1.15324e-08
1.1531e-08
1.15296e-08
1.15282e-08
1.15269e-08
1.15256e-08
1.15243e-08
1.15231e-08
1.15219e-08
1.15208e-08
1.15197e-08
1.15187e-08
1.15176e-08
1.15166e-08
1.15155e-08
1.15144e-08
1.15133e-08
1.15123e-08
1.15112e-08
1.15102e-08
1.15093e-08
1.15084e-08
1.15075e-08
1.15068e-08
1.1506e-08
1.15052e-08
1.15044e-08
1.15036e-08
1.15028e-08
1.1502e-08
1.15011e-08
1.15003e-08
1.14995e-08
1.14987e-08
1.14979e-08
1.14971e-08
1.14964e-08
1.14957e-08
1.1495e-08
1.14943e-08
1.14936e-08
1.14928e-08
1.1492e-08
1.14912e-08
1.14905e-08
1.14897e-08
1.1489e-08
1.14884e-08
1.14877e-08
1.14871e-08
1.14864e-08
1.14858e-08
1.14851e-08
1.14844e-08
1.14837e-08
1.1483e-08
1.14824e-08
1.14818e-08
1.14812e-08
1.14806e-08
1.148e-08
1.14795e-08
1.14789e-08
1.14784e-08
1.14778e-08
1.14773e-08
1.14768e-08
1.14763e-08
1.14759e-08
1.14755e-08
1.1475e-08
1.14746e-08
1.14742e-08
1.14737e-08
1.14732e-08
1.14727e-08
1.14723e-08
1.14719e-08
1.14715e-08
1.14711e-08
1.14706e-08
1.14702e-08
1.14697e-08
1.14692e-08
1.14687e-08
1.14682e-08
1.14678e-08
1.14674e-08
1.1467e-08
1.14666e-08
1.14662e-08
1.14657e-08
1.14653e-08
1.14649e-08
1.14646e-08
1.14642e-08
1.14639e-08
1.14635e-08
1.14631e-08
1.14628e-08
1.14625e-08
1.14622e-08
1.14619e-08
1.14616e-08
1.14613e-08
1.1461e-08
1.14608e-08
1.14605e-08
1.14602e-08
1.14599e-08
1.14596e-08
1.14593e-08
1.1459e-08
1.14587e-08
1.14585e-08
1.14583e-08
1.14582e-08
1.1458e-08
1.14579e-08
1.14578e-08
1.14578e-08
1.14577e-08
1.14575e-08
1.14574e-08
1.14572e-08
1.14572e-08
1.14571e-08
1.1457e-08
1.14568e-08
1.14566e-08
1.14565e-08
1.14564e-08
1.14563e-08
1.14563e-08
1.14563e-08
1.14564e-08
1.14564e-08
1.14564e-08
1.14565e-08
1.14564e-08
1.14564e-08
1.14562e-08
1.14563e-08
1.14563e-08
1.14562e-08
1.14564e-08
1.14564e-08
1.14564e-08
1.14562e-08
1.14561e-08
1.14561e-08
1.14558e-08
1.14559e-08
1.14562e-08
1.14558e-08
1.14587e-08
1.14578e-08
1.14579e-08
1.14578e-08
1.14576e-08
1.14573e-08
1.1457e-08
1.14567e-08
1.14562e-08
1.14557e-08
1.14553e-08
1.14549e-08
1.14547e-08
1.14545e-08
1.14544e-08
1.14544e-08
1.14544e-08
1.14544e-08
1.14545e-08
1.14545e-08
1.14546e-08
1.14546e-08
1.14547e-08
1.14549e-08
1.1455e-08
1.14553e-08
1.14556e-08
1.14559e-08
1.14562e-08
1.14566e-08
1.14568e-08
1.1457e-08
1.1457e-08
1.14569e-08
1.14566e-08
1.14562e-08
1.14557e-08
1.14552e-08
1.14548e-08
1.14545e-08
1.14543e-08
1.14541e-08
1.14541e-08
1.14542e-08
1.14542e-08
1.14542e-08
1.14542e-08
1.14541e-08
1.14541e-08
1.14541e-08
1.14543e-08
1.14547e-08
1.14551e-08
1.14555e-08
1.14559e-08
1.1456e-08
1.14559e-08
1.14559e-08
1.14562e-08
1.14566e-08
1.14569e-08
1.14568e-08
1.14563e-08
1.14556e-08
1.14552e-08
1.14552e-08
1.14551e-08
1.14547e-08
1.14541e-08
1.14538e-08
1.14542e-08
1.14543e-08
1.14542e-08
1.14545e-08
1.14554e-08
1.14558e-08
1.14556e-08
1.14553e-08
1.1455e-08
1.14545e-08
1.14621e-08
8.11484e-09
9.53623e-09
1.07436e-07
5.43122e-08
6.63639e-08
5.9628e-08
5.75021e-08
5.41206e-08
5.15009e-08
4.91353e-08
4.68525e-08
4.46989e-08
4.29837e-08
4.15721e-08
4.02374e-08
3.92958e-08
3.87372e-08
3.83399e-08
3.78119e-08
3.74197e-08
3.72342e-08
3.70753e-08
3.69536e-08
3.7035e-08
3.74196e-08
3.79036e-08
3.81387e-08
3.786e-08
3.80082e-08
3.80728e-08
3.6751e-08
3.63096e-08
3.8608e-08
4.41707e-08
4.59259e-08
4.38564e-08
4.28199e-08
4.40825e-08
4.90548e-08
5.3392e-08
5.31365e-08
5.3386e-08
5.74155e-08
6.31777e-08
6.62651e-08
6.74105e-08
7.02171e-08
7.51399e-08
8.09077e-08
8.75036e-08
9.6214e-08
1.0883e-07
1.25871e-07
1.51854e-07
1.80941e-07
2.01815e-07
2.30346e-07
2.89663e-07
3.3554e-07
3.07607e-07
2.78645e-07
2.75537e-07
2.64412e-07
2.16591e-07
1.61762e-07
1.25914e-07
1.04463e-07
8.77463e-08
7.47278e-08
6.42161e-08
5.52141e-08
4.66004e-08
3.86971e-08
3.15903e-08
2.51425e-08
1.82862e-08
1.35259e-08
1.40259e-08
1.26961e-08
1.01011e-08
5.75344e-09
6.04713e-09
1.14189e-08
1.34291e-08
2.98706e-08
3.30719e-08
1.99009e-07
1.07355e-07
8.18182e-08
2.64909e-07
2.41337e-07
3.50001e-07
2.5358e-07
3.99576e-07
3.35691e-07
2.37351e-07
2.07374e-07
1.52336e-07
1.95394e-07
1.31465e-07
1.22299e-07
6.17015e-08
6.44455e-08
1.28888e-07
1.23351e-07
1.98004e-07
1.89154e-07
2.34036e-07
3.06539e-07
3.00109e-07
2.34245e-07
2.21283e-07
2.12275e-07
2.0156e-07
1.93222e-07
1.75321e-07
2.2153e-07
1.56715e-07
1.46596e-07
7.76627e-08
8.06008e-08
1.53541e-07
1.49904e-07
2.23548e-07
2.2691e-07
2.73205e-07
2.78517e-07
2.43391e-07
2.38854e-07
2.39738e-07
2.35471e-07
2.33339e-07
2.3186e-07
2.29504e-07
2.28079e-07
2.27714e-07
2.27577e-07
2.27376e-07
2.27184e-07
2.27161e-07
2.27228e-07
2.27429e-07
2.27788e-07
2.2828e-07
2.28836e-07
2.29522e-07
2.30445e-07
2.31533e-07
2.32723e-07
2.34132e-07
2.35745e-07
2.37388e-07
2.39153e-07
2.41139e-07
2.43264e-07
2.45451e-07
2.47772e-07
2.50296e-07
2.52996e-07
2.55821e-07
2.58768e-07
2.61892e-07
2.65157e-07
2.68469e-07
2.7181e-07
2.75276e-07
2.78905e-07
2.82689e-07
2.86652e-07
2.90848e-07
2.95196e-07
2.99643e-07
3.04236e-07
3.08991e-07
3.13858e-07
3.18852e-07
3.24077e-07
3.29564e-07
3.35225e-07
3.41032e-07
3.47111e-07
3.53528e-07
3.6022e-07
3.67181e-07
3.74527e-07
3.82286e-07
3.90329e-07
3.98587e-07
4.07208e-07
4.16384e-07
4.26108e-07
4.3625e-07
4.46785e-07
4.57774e-07
4.69179e-07
4.80886e-07
4.93006e-07
5.05807e-07
5.19335e-07
5.33436e-07
5.48077e-07
5.63358e-07
5.79305e-07
5.95942e-07
6.13423e-07
6.31902e-07
6.5149e-07
6.72306e-07
6.94351e-07
7.17347e-07
7.41018e-07
7.65481e-07
7.91015e-07
8.17631e-07
8.45392e-07
8.74806e-07
9.06431e-07
9.40305e-07
9.76325e-07
1.01478e-06
1.05594e-06
1.09931e-06
1.14409e-06
1.19013e-06
1.23806e-06
1.28832e-06
1.34108e-06
1.3972e-06
1.45811e-06
1.52428e-06
1.59513e-06
1.66999e-06
1.74822e-06
1.7986e-06
1.79869e-06
1.79873e-06
1.79873e-06
1.79865e-06
1.79868e-06
1.79884e-06
1.79904e-06
1.7992e-06
1.79931e-06
1.79936e-06
1.79926e-06
1.79919e-06
1.79923e-06
1.79931e-06
1.79934e-06
1.79927e-06
1.79923e-06
1.79933e-06
1.79964e-06
1.79994e-06
1.80005e-06
1.80008e-06
1.80033e-06
1.80084e-06
1.80139e-06
1.80173e-06
1.8018e-06
1.80177e-06
1.80174e-06
1.80172e-06
1.80172e-06
1.8018e-06
1.80195e-06
1.80212e-06
1.80229e-06
1.8026e-06
1.80304e-06
1.80346e-06
1.80376e-06
1.80397e-06
1.80415e-06
1.80429e-06
1.80437e-06
1.80442e-06
1.8044e-06
1.80428e-06
1.80412e-06
1.80407e-06
1.80424e-06
1.80463e-06
1.80516e-06
1.80575e-06
1.80638e-06
1.80708e-06
1.80784e-06
1.80859e-06
1.80926e-06
1.80982e-06
1.81026e-06
1.81054e-06
1.81065e-06
1.81062e-06
1.81056e-06
1.81055e-06
1.81062e-06
1.81074e-06
1.81089e-06
1.81109e-06
1.81139e-06
1.81185e-06
1.81246e-06
1.81316e-06
1.81388e-06
1.81457e-06
1.81518e-06
1.8157e-06
1.81609e-06
1.81638e-06
1.81658e-06
1.81673e-06
1.81687e-06
1.81704e-06
1.81729e-06
1.81764e-06
1.81806e-06
1.81854e-06
1.81903e-06
1.81953e-06
1.82005e-06
1.82057e-06
1.82102e-06
1.82128e-06
1.82127e-06
1.82107e-06
1.82089e-06
1.82087e-06
1.82102e-06
1.82123e-06
1.82151e-06
1.82198e-06
1.8227e-06
1.8235e-06
1.82407e-06
1.82433e-06
1.82441e-06
1.82447e-06
1.82445e-06
1.82425e-06
1.82392e-06
1.82369e-06
1.82367e-06
1.82379e-06
1.82399e-06
1.82428e-06
1.82467e-06
1.82504e-06
1.82526e-06
1.82534e-06
1.8253e-06
1.8251e-06
1.8248e-06
1.82455e-06
1.82449e-06
1.82462e-06
1.82485e-06
1.82516e-06
1.82554e-06
1.8259e-06
1.8261e-06
1.82606e-06
1.82585e-06
1.8256e-06
1.82539e-06
1.82528e-06
1.82531e-06
1.82552e-06
1.8259e-06
1.82633e-06
1.82668e-06
1.82687e-06
1.82696e-06
1.82701e-06
1.82706e-06
1.8271e-06
1.82717e-06
1.8274e-06
1.82783e-06
1.82833e-06
1.8287e-06
1.82883e-06
1.82872e-06
1.82846e-06
1.82822e-06
1.82814e-06
1.82826e-06
1.82853e-06
1.82885e-06
1.82909e-06
1.82914e-06
1.82896e-06
1.82864e-06
1.82827e-06
1.828e-06
1.82796e-06
1.82823e-06
1.8287e-06
1.8291e-06
1.82928e-06
1.82926e-06
1.82923e-06
1.82919e-06
1.82919e-06
1.82938e-06
1.82971e-06
1.82993e-06
1.82993e-06
1.82978e-06
1.82965e-06
1.82972e-06
1.82997e-06
1.83023e-06
1.83041e-06
1.83057e-06
1.83058e-06
1.83056e-06
1.83066e-06
1.83083e-06
1.83062e-06
1.8303e-06
1.8301e-06
1.83003e-06
1.8305e-06
1.83082e-06
1.83109e-06
1.83149e-06
1.83179e-06
1.83215e-06
1.83236e-06
1.83304e-06
1.83314e-06
1.83309e-06
1.83262e-06
1.83235e-06
1.83263e-06
1.83257e-06
1.83333e-06
1.83288e-06
1.83169e-06
1.83182e-06
1.83198e-06
1.83278e-06
1.83243e-06
1.8326e-06
1.8335e-06
1.83381e-06
1.83402e-06
1.83364e-06
1.83399e-06
1.83348e-06
1.83325e-06
1.83245e-06
1.83323e-06
1.83401e-06
1.83296e-06
1.83401e-06
1.83408e-06
1.83352e-06
1.83329e-06
1.83167e-06
1.83356e-06
1.83158e-06
1.83289e-06
1.83413e-06
1.8339e-06
1.83382e-06
1.83355e-06
1.83295e-06
1.83371e-06
1.83209e-06
1.83122e-06
1.83087e-06
1.82982e-06
1.82846e-06
1.82763e-06
1.82718e-06
1.82687e-06
1.82713e-06
1.82816e-06
1.82933e-06
1.82983e-06
1.82963e-06
1.8295e-06
1.82994e-06
1.8308e-06
1.83159e-06
1.83202e-06
1.83196e-06
1.83144e-06
1.83066e-06
1.8299e-06
1.8293e-06
1.82897e-06
1.82895e-06
1.82925e-06
1.82994e-06
1.83109e-06
1.83277e-06
1.83412e-06
1.83415e-06
1.83416e-06
1.83417e-06
1.83418e-06
1.83418e-06
1.83419e-06
1.83419e-06
1.83418e-06
1.83418e-06
1.83416e-06
1.83413e-06
1.83408e-06
1.83397e-06
1.83373e-06
1.83381e-06
1.83398e-06
1.83407e-06
1.8341e-06
1.83413e-06
1.83415e-06
1.83414e-06
1.83409e-06
1.834e-06
1.8334e-06
1.83403e-06
1.8341e-06
1.83412e-06
1.83403e-06
1.82975e-06
1.82541e-06
1.82726e-06
1.83331e-06
1.83398e-06
1.82981e-06
1.8249e-06
1.82765e-06
1.83402e-06
1.83408e-06
1.83386e-06
1.83353e-06
1.83414e-06
1.83416e-06
1.83401e-06
1.82962e-06
1.83189e-06
1.82598e-06
1.82623e-06
1.8299e-06
8.0256e-09
9.54662e-09
6.91851e-08
4.54229e-08
5.75865e-08
5.68661e-08
5.67535e-08
5.34108e-08
5.06348e-08
4.76467e-08
4.50753e-08
4.31289e-08
4.18269e-08
4.14897e-08
4.01325e-08
3.91397e-08
3.86705e-08
3.81423e-08
3.76736e-08
3.74573e-08
3.76089e-08
3.78571e-08
3.76736e-08
3.73087e-08
3.74971e-08
3.83311e-08
3.88284e-08
3.87833e-08
3.87896e-08
3.94089e-08
3.93779e-08
3.8953e-08
3.87031e-08
4.06844e-08
4.36991e-08
4.51427e-08
4.52194e-08
4.52135e-08
4.82301e-08
5.3191e-08
5.62399e-08
5.7259e-08
5.64435e-08
5.88102e-08
6.4553e-08
6.9293e-08
6.77564e-08
6.81631e-08
7.43296e-08
8.28864e-08
8.73966e-08
9.19643e-08
1.03361e-07
1.20619e-07
1.44193e-07
1.65279e-07
1.86045e-07
2.23948e-07
2.5331e-07
2.29109e-07
2.07557e-07
2.16479e-07
2.1735e-07
1.74717e-07
1.36862e-07
1.17331e-07
1.02583e-07
8.85071e-08
7.71821e-08
6.75353e-08
5.95002e-08
5.2533e-08
4.6442e-08
4.09246e-08
3.65789e-08
3.39488e-08
3.16295e-08
2.88865e-08
2.35284e-08
1.62275e-08
1.46242e-08
1.1741e-08
9.87979e-09
5.3839e-09
5.56245e-09
9.25379e-09
1.17191e-08
1.53959e-08
3.19111e-08
3.63955e-08
1.20658e-07
9.53459e-08
3.56992e-07
2.30222e-07
2.16331e-07
1.81269e-07
2.80403e-07
2.91483e-07
3.24799e-07
3.44296e-07
1.82799e-07
1.78712e-07
1.16337e-07
1.12264e-07
6.05479e-08
6.28546e-08
1.06172e-07
1.13211e-07
1.35024e-07
1.92395e-07
1.93109e-07
2.54063e-07
2.52448e-07
2.14243e-07
2.17431e-07
2.3385e-07
2.90203e-07
2.83545e-07
2.06681e-07
1.97236e-07
1.40719e-07
1.38933e-07
7.90919e-08
8.17647e-08
1.46484e-07
1.44511e-07
2.11462e-07
2.16075e-07
2.50446e-07
2.55551e-07
2.29458e-07
2.26312e-07
2.28088e-07
2.24258e-07
2.23017e-07
2.23383e-07
2.23724e-07
2.23471e-07
2.23386e-07
2.23671e-07
2.23856e-07
2.24107e-07
2.24547e-07
2.25158e-07
2.25989e-07
2.2707e-07
2.28248e-07
2.29434e-07
2.30864e-07
2.32479e-07
2.34194e-07
2.35909e-07
2.37667e-07
2.39577e-07
2.41607e-07
2.43775e-07
2.46049e-07
2.48475e-07
2.5113e-07
2.5393e-07
2.56812e-07
2.59801e-07
2.6293e-07
2.66166e-07
2.69485e-07
2.72931e-07
2.76593e-07
2.80443e-07
2.84455e-07
2.88643e-07
2.92988e-07
2.97457e-07
3.0202e-07
3.06707e-07
3.11543e-07
3.16554e-07
3.21811e-07
3.27379e-07
3.33179e-07
3.39084e-07
3.45147e-07
3.51478e-07
3.58058e-07
3.64869e-07
3.7206e-07
3.7979e-07
3.88004e-07
3.96559e-07
4.05497e-07
4.14933e-07
4.24797e-07
4.34901e-07
4.45221e-07
4.55937e-07
4.67104e-07
4.78657e-07
4.90729e-07
5.03624e-07
5.17358e-07
5.31664e-07
5.46431e-07
5.61737e-07
5.77536e-07
5.93765e-07
6.1072e-07
6.2887e-07
6.48479e-07
6.69652e-07
6.92484e-07
7.16773e-07
7.41812e-07
7.67007e-07
7.92449e-07
8.18571e-07
8.45697e-07
8.74265e-07
9.05083e-07
9.38758e-07
9.75209e-07
1.01406e-06
1.05512e-06
1.09807e-06
1.14223e-06
1.1872e-06
1.23376e-06
1.28323e-06
1.33641e-06
1.39369e-06
1.45574e-06
1.52308e-06
1.59543e-06
1.67161e-06
1.74997e-06
1.82879e-06
1.90721e-06
1.98674e-06
2.07111e-06
2.16427e-06
2.26896e-06
2.38638e-06
2.51659e-06
2.65771e-06
2.80749e-06
2.96522e-06
3.13272e-06
3.31297e-06
3.50235e-06
3.69294e-06
3.88321e-06
4.08541e-06
4.31833e-06
4.58877e-06
4.88537e-06
5.19873e-06
5.54926e-06
5.98066e-06
6.5148e-06
7.11605e-06
7.72003e-06
8.31081e-06
8.93077e-06
9.60663e-06
9.70864e-06
9.70771e-06
9.70678e-06
9.70596e-06
9.70535e-06
9.70489e-06
9.70468e-06
9.70482e-06
9.70501e-06
9.70509e-06
9.70505e-06
9.70489e-06
9.7046e-06
9.70416e-06
9.70356e-06
9.70275e-06
9.7017e-06
9.70061e-06
9.69953e-06
9.6986e-06
9.69795e-06
9.69745e-06
9.69704e-06
9.69669e-06
9.69642e-06
9.69619e-06
9.69594e-06
9.69563e-06
9.69531e-06
9.69483e-06
9.69413e-06
9.6933e-06
9.69238e-06
9.69147e-06
9.69071e-06
9.69005e-06
9.68947e-06
9.689e-06
9.6887e-06
9.6887e-06
9.68882e-06
9.68898e-06
9.68917e-06
9.68939e-06
9.68962e-06
9.68983e-06
9.69002e-06
9.69018e-06
9.69031e-06
9.69042e-06
9.6905e-06
9.69056e-06
9.69063e-06
9.69071e-06
9.69081e-06
9.69094e-06
9.69109e-06
9.69126e-06
9.69143e-06
9.69159e-06
9.69174e-06
9.69188e-06
9.69201e-06
9.69209e-06
9.69212e-06
9.69209e-06
9.69206e-06
9.69207e-06
9.69213e-06
9.69223e-06
9.69233e-06
9.69248e-06
9.69268e-06
9.69291e-06
9.69309e-06
9.69317e-06
9.6932e-06
9.69321e-06
9.69322e-06
9.69319e-06
9.69312e-06
9.69307e-06
9.69308e-06
9.69312e-06
9.69319e-06
9.69327e-06
9.69338e-06
9.69347e-06
9.69353e-06
9.69356e-06
9.69355e-06
9.69351e-06
9.69343e-06
9.69338e-06
9.69339e-06
9.69345e-06
9.69353e-06
9.69362e-06
9.69371e-06
9.6938e-06
9.69385e-06
9.69384e-06
9.69378e-06
9.69372e-06
9.69368e-06
9.69366e-06
9.69369e-06
9.69376e-06
9.69387e-06
9.69399e-06
9.69409e-06
9.69415e-06
9.69417e-06
9.6942e-06
9.69423e-06
9.69427e-06
9.69431e-06
9.69438e-06
9.6945e-06
9.69463e-06
9.69472e-06
9.69474e-06
9.69471e-06
9.69466e-06
9.69462e-06
9.69463e-06
9.69469e-06
9.69477e-06
9.69485e-06
9.6949e-06
9.69489e-06
9.69483e-06
9.69474e-06
9.69466e-06
9.69461e-06
9.69462e-06
9.6947e-06
9.69482e-06
9.69491e-06
9.69494e-06
9.69494e-06
9.69496e-06
9.69498e-06
9.695e-06
9.69505e-06
9.69512e-06
9.69516e-06
9.69517e-06
9.69515e-06
9.69514e-06
9.69518e-06
9.69526e-06
9.69533e-06
9.69537e-06
9.6954e-06
9.69541e-06
9.69541e-06
9.69544e-06
9.69549e-06
9.69545e-06
9.69539e-06
9.69533e-06
9.6953e-06
9.69547e-06
9.69565e-06
9.69575e-06
9.69576e-06
9.69576e-06
9.69586e-06
9.69597e-06
9.69618e-06
9.69621e-06
9.69622e-06
9.69609e-06
9.69604e-06
9.6961e-06
9.6961e-06
9.6963e-06
9.69617e-06
9.69583e-06
9.69591e-06
9.69595e-06
9.69624e-06
9.69614e-06
9.69617e-06
9.6964e-06
9.69647e-06
9.69652e-06
9.69635e-06
9.69655e-06
9.69643e-06
9.69631e-06
9.69626e-06
9.69643e-06
9.69655e-06
9.69639e-06
9.69651e-06
9.69641e-06
9.69646e-06
9.69632e-06
8.93587e-06
7.63772e-06
9.6964e-06
9.69655e-06
9.69656e-06
9.6965e-06
9.69648e-06
9.69629e-06
9.69622e-06
9.6964e-06
9.69574e-06
9.69548e-06
9.69528e-06
9.69487e-06
9.69462e-06
9.69457e-06
9.69449e-06
9.69436e-06
9.69441e-06
9.69467e-06
9.69492e-06
9.69498e-06
9.69494e-06
9.695e-06
9.69523e-06
9.69554e-06
9.6958e-06
9.69591e-06
9.69586e-06
9.69566e-06
9.6954e-06
9.69517e-06
9.69503e-06
9.695e-06
9.69507e-06
9.69524e-06
9.69551e-06
9.69589e-06
9.69638e-06
9.69663e-06
9.69664e-06
9.69664e-06
9.69664e-06
9.69665e-06
9.69665e-06
9.69665e-06
9.69665e-06
9.69665e-06
9.69665e-06
9.69664e-06
9.69663e-06
9.69661e-06
9.69657e-06
9.69654e-06
9.69654e-06
9.69658e-06
9.6966e-06
9.69661e-06
9.69663e-06
9.69663e-06
9.69663e-06
9.69662e-06
9.69658e-06
9.6965e-06
9.69658e-06
9.69661e-06
9.69662e-06
9.69652e-06
9.69499e-06
9.69429e-06
9.69525e-06
9.69648e-06
9.69629e-06
9.69476e-06
9.69405e-06
9.69551e-06
9.69658e-06
9.69662e-06
9.69621e-06
9.69655e-06
9.69663e-06
9.69666e-06
9.69629e-06
9.69541e-06
9.69569e-06
9.69452e-06
9.69527e-06
9.6954e-06
7.5044e-09
9.11521e-09
6.30424e-08
4.65376e-08
5.60599e-08
5.22774e-08
5.09326e-08
4.79244e-08
4.57192e-08
4.3631e-08
4.20048e-08
4.06603e-08
3.96111e-08
3.91474e-08
3.86052e-08
3.83308e-08
3.80774e-08
3.77822e-08
3.76768e-08
3.77254e-08
3.79084e-08
3.80927e-08
3.79712e-08
3.77791e-08
3.78557e-08
3.82618e-08
3.89087e-08
3.98973e-08
4.04387e-08
4.1479e-08
4.38906e-08
4.48018e-08
4.22358e-08
3.93865e-08
4.10864e-08
4.5386e-08
4.8556e-08
4.87781e-08
4.72708e-08
4.86144e-08
5.31847e-08
5.55129e-08
5.44051e-08
5.56065e-08
5.9853e-08
6.49725e-08
6.62806e-08
6.8308e-08
7.30222e-08
7.77998e-08
7.94254e-08
8.31689e-08
9.24229e-08
1.03349e-07
1.16485e-07
1.26173e-07
1.38448e-07
1.59886e-07
1.71769e-07
1.61811e-07
1.54847e-07
1.62082e-07
1.60315e-07
1.352e-07
1.1376e-07
1.03561e-07
9.51095e-08
8.62366e-08
7.76405e-08
6.95779e-08
6.28924e-08
5.80427e-08
5.35245e-08
4.8095e-08
4.3695e-08
4.2139e-08
4.31017e-08
4.82801e-08
5.63138e-08
4.57437e-08
3.39683e-08
2.56747e-08
1.76662e-08
1.59223e-08
1.34297e-08
1.07405e-08
7.91579e-09
5.27968e-09
5.42977e-09
1.03929e-08
1.23141e-08
3.00774e-08
3.46109e-08
1.74641e-07
1.21795e-07
2.40817e-07
1.94195e-07
2.0134e-07
1.84562e-07
3.12899e-07
3.5068e-07
3.59098e-07
3.0153e-07
1.7638e-07
1.7284e-07
1.25691e-07
1.04979e-07
9.53227e-08
6.20673e-08
6.47962e-08
1.14871e-07
1.13673e-07
1.75729e-07
1.80967e-07
2.42162e-07
2.57218e-07
2.33752e-07
2.38097e-07
2.46545e-07
2.80534e-07
2.55768e-07
1.9913e-07
1.88119e-07
1.36908e-07
1.36048e-07
8.21263e-08
8.48885e-08
1.44589e-07
1.43455e-07
2.08007e-07
2.11856e-07
2.36984e-07
2.40501e-07
2.18905e-07
2.14939e-07
2.18359e-07
2.22774e-07
2.22176e-07
2.22128e-07
2.2254e-07
2.22535e-07
2.22647e-07
2.23356e-07
2.24097e-07
2.25014e-07
2.26232e-07
2.27551e-07
2.28874e-07
2.30385e-07
2.32028e-07
2.33735e-07
2.35511e-07
2.37304e-07
2.39188e-07
2.41244e-07
2.43454e-07
2.4574e-07
2.48159e-07
2.50748e-07
2.53419e-07
2.56163e-07
2.59029e-07
2.62085e-07
2.65329e-07
2.68704e-07
2.722e-07
2.75924e-07
2.79795e-07
2.83712e-07
2.87736e-07
2.92015e-07
2.96496e-07
3.01056e-07
3.0577e-07
3.10752e-07
3.15925e-07
3.21237e-07
3.26819e-07
3.32717e-07
3.38781e-07
3.44948e-07
3.51328e-07
3.57957e-07
3.6479e-07
3.71968e-07
3.79706e-07
3.87969e-07
3.96579e-07
4.05517e-07
4.14843e-07
4.24476e-07
4.34275e-07
4.44327e-07
4.54961e-07
4.66252e-07
4.77954e-07
4.9001e-07
5.02765e-07
5.16385e-07
5.30655e-07
5.45493e-07
5.61058e-07
5.77267e-07
5.93832e-07
6.10886e-07
6.28932e-07
6.48172e-07
6.68607e-07
6.90593e-07
7.14477e-07
7.39783e-07
7.65641e-07
7.91959e-07
8.1935e-07
8.47978e-07
8.77569e-07
9.08492e-07
9.41619e-07
9.77076e-07
1.01418e-06
1.05275e-06
1.09347e-06
1.13671e-06
1.18219e-06
1.23011e-06
1.28133e-06
1.33603e-06
1.39365e-06
1.45419e-06
1.51842e-06
1.58686e-06
1.65942e-06
1.73551e-06
1.81432e-06
1.89534e-06
1.97906e-06
2.06752e-06
2.16314e-06
2.26797e-06
2.38383e-06
2.51269e-06
2.65401e-06
2.80338e-06
2.95539e-06
3.10855e-06
3.26788e-06
3.44038e-06
3.62724e-06
3.82363e-06
4.02987e-06
4.25916e-06
4.52681e-06
4.83179e-06
5.16042e-06
5.51649e-06
5.93693e-06
6.4577e-06
7.05773e-06
7.66443e-06
8.24783e-06
8.86415e-06
9.55695e-06
9.99815e-06
9.99814e-06
9.99812e-06
9.99811e-06
9.9981e-06
9.99809e-06
9.99809e-06
9.99809e-06
9.99809e-06
9.99809e-06
9.99809e-06
9.99809e-06
9.99808e-06
9.99807e-06
9.99806e-06
9.99805e-06
9.99803e-06
9.99801e-06
9.998e-06
9.99798e-06
9.99797e-06
9.99796e-06
9.99796e-06
9.99795e-06
9.99795e-06
9.99794e-06
9.99794e-06
9.99794e-06
9.99793e-06
9.99792e-06
9.9979e-06
9.99788e-06
9.99786e-06
9.99784e-06
9.99782e-06
9.9978e-06
9.99778e-06
9.99777e-06
9.99776e-06
9.99775e-06
9.99775e-06
9.99775e-06
9.99775e-06
9.99775e-06
9.99775e-06
9.99775e-06
9.99775e-06
9.99775e-06
9.99774e-06
9.99774e-06
9.99773e-06
9.99773e-06
9.99772e-06
9.99771e-06
9.99771e-06
9.99771e-06
9.99771e-06
9.99771e-06
9.99771e-06
9.99771e-06
9.99771e-06
9.99771e-06
9.99771e-06
9.99771e-06
9.99771e-06
9.9977e-06
9.99769e-06
9.99769e-06
9.99769e-06
9.99769e-06
9.99768e-06
9.99769e-06
9.99769e-06
9.9977e-06
9.9977e-06
9.9977e-06
9.99769e-06
9.99769e-06
9.99769e-06
9.99768e-06
9.99768e-06
9.99767e-06
9.99767e-06
9.99767e-06
9.99768e-06
9.99768e-06
9.99768e-06
9.99768e-06
9.99768e-06
9.99768e-06
9.99768e-06
9.99767e-06
9.99767e-06
9.99767e-06
9.99767e-06
9.99767e-06
9.99767e-06
9.99767e-06
9.99767e-06
9.99767e-06
9.99767e-06
9.99767e-06
9.99767e-06
9.99766e-06
9.99766e-06
9.99766e-06
9.99766e-06
9.99766e-06
9.99766e-06
9.99766e-06
9.99766e-06
9.99766e-06
9.99766e-06
9.99766e-06
9.99766e-06
9.99766e-06
9.99766e-06
9.99766e-06
9.99766e-06
9.99766e-06
9.99766e-06
9.99766e-06
9.99766e-06
9.99766e-06
9.99766e-06
9.99766e-06
9.99766e-06
9.99766e-06
9.99766e-06
9.99766e-06
9.99766e-06
9.99766e-06
9.99766e-06
9.99766e-06
9.99766e-06
9.99766e-06
9.99766e-06
9.99766e-06
9.99766e-06
9.99766e-06
9.99766e-06
9.99766e-06
9.99766e-06
9.99766e-06
9.99766e-06
9.99766e-06
9.99766e-06
9.99766e-06
9.99766e-06
9.99766e-06
9.99766e-06
9.99766e-06
9.99766e-06
9.99766e-06
9.99766e-06
9.99766e-06
9.99766e-06
9.99766e-06
9.99765e-06
9.99765e-06
9.99766e-06
9.99765e-06
9.99765e-06
9.99766e-06
9.99766e-06
9.99766e-06
9.99766e-06
9.99766e-06
9.99766e-06
9.99766e-06
9.99766e-06
9.99766e-06
9.99766e-06
9.99766e-06
9.99766e-06
9.99766e-06
9.99766e-06
9.99766e-06
9.99766e-06
9.99766e-06
9.99766e-06
9.99766e-06
9.99766e-06
9.99766e-06
9.99766e-06
9.99766e-06
9.99766e-06
9.99766e-06
9.99766e-06
9.99766e-06
9.99766e-06
9.99766e-06
9.99766e-06
9.99766e-06
9.99766e-06
9.99769e-06
9.99769e-06
7.64464e-06
7.07053e-06
9.99769e-06
9.99767e-06
9.99768e-06
9.99767e-06
9.99767e-06
9.99766e-06
9.99766e-06
9.99766e-06
9.99766e-06
9.99766e-06
9.99766e-06
9.99765e-06
9.99765e-06
9.99765e-06
9.99764e-06
9.99764e-06
9.99764e-06
9.99764e-06
9.99764e-06
9.99764e-06
9.99765e-06
9.99765e-06
9.99765e-06
9.99765e-06
9.99765e-06
9.99765e-06
9.99765e-06
9.99766e-06
9.99766e-06
9.99766e-06
9.99766e-06
9.99766e-06
9.99765e-06
9.99765e-06
9.99765e-06
9.99765e-06
9.99765e-06
9.99766e-06
9.99766e-06
9.99767e-06
9.99767e-06
9.99767e-06
9.99767e-06
9.99767e-06
9.99767e-06
9.99767e-06
9.99767e-06
9.99767e-06
9.99767e-06
9.99768e-06
9.99768e-06
9.99767e-06
9.99767e-06
9.99767e-06
9.99767e-06
9.99767e-06
9.99767e-06
9.99767e-06
9.99767e-06
9.99767e-06
9.99768e-06
9.99768e-06
9.99768e-06
9.99768e-06
9.99767e-06
9.99767e-06
9.99767e-06
9.99768e-06
9.99767e-06
9.99766e-06
9.99766e-06
9.99766e-06
9.99767e-06
9.99766e-06
9.99766e-06
9.99767e-06
9.99767e-06
9.99769e-06
9.99767e-06
9.99767e-06
9.9977e-06
9.99771e-06
9.99767e-06
9.99767e-06
9.99767e-06
9.99766e-06
9.99767e-06
9.99773e-06
9.99771e-06
6.91647e-09
8.82398e-09
6.88741e-08
4.95277e-08
5.37427e-08
4.88079e-08
4.64861e-08
4.32993e-08
4.14036e-08
4.00328e-08
3.89546e-08
3.7973e-08
3.73221e-08
3.70379e-08
3.70264e-08
3.71502e-08
3.71106e-08
3.7027e-08
3.70372e-08
3.7196e-08
3.74182e-08
3.77358e-08
3.79839e-08
3.7989e-08
3.79395e-08
3.79935e-08
3.84687e-08
3.95237e-08
4.06603e-08
4.22725e-08
4.49395e-08
4.64488e-08
4.57148e-08
4.35969e-08
4.37533e-08
4.55607e-08
4.687e-08
4.70566e-08
4.66433e-08
4.73687e-08
4.96764e-08
5.14445e-08
5.21087e-08
5.36621e-08
5.68744e-08
6.12279e-08
6.45662e-08
6.74756e-08
7.067e-08
7.41595e-08
7.5648e-08
7.75806e-08
8.25409e-08
8.94291e-08
9.77991e-08
1.03536e-07
1.11299e-07
1.23398e-07
1.29458e-07
1.26518e-07
1.24812e-07
1.28691e-07
1.26938e-07
1.1219e-07
9.85184e-08
9.17567e-08
8.66968e-08
8.15561e-08
7.55165e-08
6.95806e-08
6.51765e-08
6.24279e-08
5.91861e-08
5.46766e-08
5.13389e-08
5.1598e-08
5.25743e-08
5.3194e-08
5.85524e-08
6.75553e-08
8.37553e-08
1.08821e-07
7.78095e-08
4.80473e-08
4.90218e-08
2.94678e-08
1.57826e-08
1.3007e-08
1.06555e-08
9.42473e-09
5.14128e-09
5.42582e-09
1.01721e-08
1.18985e-08
3.02359e-08
3.47061e-08
2.23509e-07
1.33117e-07
2.12005e-07
1.81627e-07
2.10506e-07
1.84071e-07
2.5906e-07
2.8707e-07
2.88165e-07
2.45045e-07
1.73067e-07
1.44127e-07
1.46191e-07
1.06022e-07
1.06412e-07
6.5415e-08
6.83893e-08
1.17945e-07
1.18154e-07
1.863e-07
1.94596e-07
2.51398e-07
2.59304e-07
2.27687e-07
2.23186e-07
2.28785e-07
2.53046e-07
2.34812e-07
1.95269e-07
1.85763e-07
1.36503e-07
1.36271e-07
8.61618e-08
8.89009e-08
1.44772e-07
1.43972e-07
2.05734e-07
2.04086e-07
2.11359e-07
2.32491e-07
2.35676e-07
2.2153e-07
2.19802e-07
2.23525e-07
2.22664e-07
2.22452e-07
2.23318e-07
2.24209e-07
2.25231e-07
2.26507e-07
2.27646e-07
2.29048e-07
2.30685e-07
2.32296e-07
2.33987e-07
2.35865e-07
2.37799e-07
2.39776e-07
2.41878e-07
2.44071e-07
2.46306e-07
2.48686e-07
2.51226e-07
2.53803e-07
2.56413e-07
2.59232e-07
2.62375e-07
2.65721e-07
2.69082e-07
2.72481e-07
2.76136e-07
2.80012e-07
2.83885e-07
2.87759e-07
2.91977e-07
2.96568e-07
3.01272e-07
3.06064e-07
3.11134e-07
3.16402e-07
3.21698e-07
3.2717e-07
3.33047e-07
3.39262e-07
3.45688e-07
3.52423e-07
3.59506e-07
3.66722e-07
3.73995e-07
3.81526e-07
3.89461e-07
3.97714e-07
4.06237e-07
4.15183e-07
4.24699e-07
4.34722e-07
4.45153e-07
4.56116e-07
4.67661e-07
4.79461e-07
4.91238e-07
5.03324e-07
5.16213e-07
5.30023e-07
5.44804e-07
5.60804e-07
5.77947e-07
5.95653e-07
6.13548e-07
6.31845e-07
6.50697e-07
6.7003e-07
6.90388e-07
7.12906e-07
7.37947e-07
7.64712e-07
7.92571e-07
8.21734e-07
8.52184e-07
8.83071e-07
9.14007e-07
9.45959e-07
9.79902e-07
1.01563e-06
1.05295e-06
1.09278e-06
1.136e-06
1.1823e-06
1.2313e-06
1.28336e-06
1.33852e-06
1.39583e-06
1.45474e-06
1.51587e-06
1.58042e-06
1.64981e-06
1.72518e-06
1.80645e-06
1.8921e-06
1.98043e-06
2.07109e-06
2.16547e-06
2.26518e-06
2.37299e-06
2.4928e-06
2.62651e-06
2.77138e-06
2.9213e-06
3.07226e-06
3.22864e-06
3.40191e-06
3.59901e-06