/*--------------------------------*- C++ -*----------------------------------*\
| =========                 |                                                 |
| \\      /  F ield         | OpenFOAM: The Open Source CFD Toolbox           |
|  \\    /   O peration     | Version:  v2006                                 |
|   \\  /    A nd           | Website:  www.openfoam.com                      |
|    \\/     M anipulation  |                                                 |
\*---------------------------------------------------------------------------*/
FoamFile
{
    version     2.0;
    format      ascii;
    class       volScalarField;
    location    "1.2";
    object      omega;
}
// * * * * * * * * * * * * * * * * * * * * * * * * * * * * * * * * * * * * * //

dimensions      [0 0 -1 0 0 0 0];


internalField   nonuniform List<scalar> 
33000
(
0.802397
0.80244
0.802427
0.802427
0.802426
0.802425
0.802421
0.802417
0.802414
0.80241
0.802407
0.802404
0.802401
0.802399
0.802398
0.802395
0.802393
0.80239
0.802386
0.802382
0.802379
0.802375
0.802371
0.802367
0.802363
0.802359
0.802355
0.80235
0.802345
0.80234
0.802334
0.802328
0.802321
0.802316
0.80231
0.802305
0.802299
0.802294
0.802287
0.802281
0.802274
0.802267
0.802258
0.802249
0.80224
0.80223
0.80222
0.80221
0.802199
0.802188
0.802177
0.802166
0.802155
0.802144
0.802134
0.802125
0.802115
0.802105
0.802096
0.802085
0.802074
0.802063
0.802052
0.802042
0.802031
0.802019
0.802007
0.801995
0.801983
0.801971
0.801958
0.801943
0.801926
0.801905
0.80188
0.80185
0.801813
0.801766
0.801661
0.801674
0.801642
0.801647
0.801642
0.801635
0.801635
0.801629
0.80162
0.801614
0.801609
0.801603
0.801598
0.801592
0.801587
0.801582
0.801576
0.80157
0.801563
0.801557
0.801551
0.801541
0.801536
0.801529
0.801524
0.801518
0.801512
0.801506
0.8015
0.801494
0.801488
0.801482
0.801476
0.80147
0.801464
0.801458
0.801451
0.801445
0.801439
0.801428
0.801423
0.801416
0.801411
0.801405
0.8014
0.801394
0.801389
0.801383
0.801377
0.801372
0.801366
0.801361
0.801355
0.80135
0.801345
0.80134
0.801335
0.80133
0.801326
0.801321
0.801316
0.801312
0.801307
0.801303
0.801299
0.801295
0.801291
0.801287
0.801283
0.801279
0.801276
0.801272
0.801269
0.801265
0.801262
0.801259
0.801255
0.801252
0.80125
0.801247
0.801244
0.801241
0.801238
0.801236
0.801233
0.801231
0.801229
0.801226
0.801224
0.801222
0.801219
0.801217
0.801215
0.801213
0.801211
0.801209
0.801208
0.801206
0.801204
0.801203
0.801201
0.801199
0.801198
0.801196
0.801195
0.801194
0.801192
0.801191
0.80119
0.801189
0.801188
0.801186
0.801185
0.801184
0.801183
0.801182
0.801182
0.801181
0.80118
0.801179
0.801178
0.801178
0.801177
0.801176
0.801176
0.801175
0.801174
0.801174
0.801173
0.801173
0.801172
0.801172
0.801171
0.801171
0.80117
0.80117
0.80117
0.801169
0.801169
0.801169
0.801168
0.801168
0.801168
0.801168
0.801167
0.801167
0.801167
0.801167
0.801166
0.801166
0.801166
0.801166
0.801165
0.801165
0.801165
0.801165
0.801165
0.801164
0.801164
0.801164
0.801164
0.801164
0.801163
0.801163
0.801163
0.801163
0.801162
0.801162
0.801162
0.801162
0.801161
0.801161
0.801161
0.80116
0.80116
0.80116
0.80116
0.801159
0.801159
0.801159
0.801159
0.801158
0.801158
0.801158
0.801157
0.801157
0.801157
0.801157
0.801156
0.801156
0.801156
0.801156
0.801155
0.801155
0.801155
0.801155
0.801154
0.801154
0.801154
0.801154
0.801153
0.801153
0.801153
0.801153
0.801152
0.801152
0.801152
0.801152
0.801151
0.801151
0.801151
0.801151
0.801151
0.80115
0.80115
0.80115
0.80115
0.80115
0.801149
0.801149
0.801149
0.801149
0.801149
0.801148
0.801148
0.801148
0.801148
0.801148
0.801148
0.801147
0.801147
0.801147
0.801147
0.801147
0.801147
0.801147
0.801146
0.801146
0.801146
0.801146
0.801146
0.801146
0.801146
0.801145
0.801145
0.801145
0.801145
0.801145
0.801145
0.801145
0.801145
0.801145
0.801145
0.801144
0.801144
0.801144
0.801144
0.801144
0.801144
0.801144
0.801144
0.801144
0.801144
0.801144
0.801144
0.801144
0.801143
0.801143
0.801143
0.801143
0.801143
0.801143
0.801143
0.801143
0.801143
0.801143
0.801143
0.801143
0.801143
0.801143
0.801142
0.801142
0.801142
0.801142
0.801142
0.801142
0.801142
0.801142
0.801142
0.801142
0.801142
0.801142
0.801142
0.801142
0.801142
0.801142
0.801141
0.801141
0.801141
0.801141
0.801141
0.801141
0.801141
0.801141
0.801141
0.801141
0.801141
0.801141
0.801141
0.801141
0.801141
0.801141
0.801141
0.801141
0.801141
0.801141
0.801141
0.801141
0.801141
0.80114
0.80114
0.80114
0.80114
0.80114
0.80114
0.80114
0.80114
0.80114
0.80114
0.80114
0.80114
0.80114
0.80114
0.80114
0.80114
0.80114
0.80114
0.80114
0.80114
0.80114
0.80114
0.80114
0.80114
0.80114
0.80114
0.80114
0.80114
0.80114
0.80114
0.80114
0.80114
0.80114
0.80114
0.801139
0.801139
0.801139
0.801139
0.801139
0.801139
0.801139
0.801139
0.801139
0.801139
0.801139
0.801139
0.801139
0.801139
0.801139
0.801139
0.801139
0.801139
0.801139
0.801139
0.801139
0.801139
0.801139
0.801139
0.801139
0.801139
0.801139
0.801139
0.801139
0.801139
0.801139
0.801139
0.801139
0.801139
0.801139
0.801139
0.801139
0.801139
0.80114
0.801139
0.801139
0.801139
0.801139
0.801139
0.801139
0.801139
0.801139
0.801139
0.801139
0.801139
0.801139
0.801139
0.801139
0.801139
0.801139
0.801139
0.801139
0.801139
0.801139
0.801139
0.801139
0.801139
0.801139
0.801139
0.801139
0.801139
0.801139
0.801139
0.801139
0.801139
0.801139
0.801139
0.801139
0.801139
0.801139
0.801139
0.801139
0.801139
0.801139
0.801139
0.801139
0.801139
0.801139
0.801139
0.801139
0.801139
0.801139
0.801139
0.801139
0.801139
0.801139
0.801139
0.801139
0.801139
0.801139
0.801139
0.801139
0.801139
0.801139
0.801139
0.801139
0.801139
0.801139
0.801139
0.801139
0.801139
0.801139
0.801139
0.801139
0.801139
0.801139
0.801139
0.801139
0.801139
0.801139
0.801139
0.801139
0.801139
0.80114
0.00836884
0.0135576
0.012863
0.0117504
0.0124402
0.0129159
0.0127069
0.012463
0.0123183
0.0121531
0.0120591
0.0120538
0.0120773
0.0124619
0.012382
0.01227
0.0121968
0.0120709
0.0119881
0.0119641
0.0119254
0.0118421
0.0116953
0.0114612
0.0112834
0.0112278
0.0111158
0.0109498
0.0107596
0.0106737
0.0105772
0.0103682
0.00999193
0.0097231
0.00970649
0.00957012
0.00929218
0.00895402
0.00880423
0.00882238
0.00873815
0.00853927
0.00810237
0.00785225
0.00783594
0.0078155
0.00745745
0.00710086
0.00699074
0.00694613
0.00677499
0.00650296
0.00634405
0.00622585
0.00618385
0.00613535
0.00607851
0.00603208
0.00601928
0.0059871
0.00594084
0.00593532
0.00593528
0.00594233
0.00595646
0.00597723
0.00600694
0.00605035
0.00611491
0.00621116
0.00635585
0.00657902
0.00693592
0.00751575
0.00845144
0.00990936
0.0117148
0.012381
0.00997713
0.00654194
0.00621859
0.00646272
0.00467898
0.00538608
0.00613363
0.0045966
0.00475456
0.00486722
0.00462828
0.00463642
0.00459503
0.00470621
0.0046801
0.0047437
0.00474578
0.00473375
0.00473146
0.00472793
0.00477557
0.00474794
0.00468399
0.00460712
0.00461302
0.00467858
0.0046769
0.00470608
0.00471907
0.00473425
0.00475229
0.00475751
0.00475755
0.00476672
0.00477888
0.00479266
0.00481431
0.00482014
0.00494287
0.00488665
0.00477855
0.00461265
0.004616
0.00476128
0.00474896
0.00481385
0.00483658
0.00486674
0.004879
0.0048842
0.00489239
0.00490392
0.00491573
0.00492805
0.00494063
0.00495122
0.00496279
0.00497481
0.00498713
0.00500035
0.00501211
0.00502309
0.00503476
0.00504701
0.00505994
0.00507287
0.00508662
0.00509923
0.00511018
0.00512155
0.00513403
0.0051471
0.00515966
0.00517239
0.00518463
0.00519626
0.00520785
0.00522033
0.00523355
0.00524632
0.00525909
0.00527086
0.00528162
0.00529224
0.00530284
0.00531352
0.00532483
0.00533663
0.00534608
0.00535423
0.00536304
0.00537094
0.00537743
0.005383
0.00538692
0.00539124
0.00539531
0.00539889
0.00540314
0.00540718
0.00541009
0.00541296
0.00541632
0.00541999
0.00542344
0.00542716
0.00543156
0.00543504
0.00543839
0.00544177
0.00544557
0.0054499
0.00545368
0.00545664
0.00545976
0.00546323
0.00546708
0.0054711
0.00547522
0.00547815
0.00548168
0.0054855
0.00548951
0.00549377
0.00549698
0.0054998
0.00550299
0.00550645
0.00550996
0.00551338
0.0055156
0.00551777
0.00552007
0.00552305
0.00552671
0.00552949
0.00553199
0.00553484
0.00553808
0.00554124
0.00554349
0.00554536
0.00554765
0.00554995
0.00555207
0.00555311
0.00555435
0.005556
0.0055572
0.00555813
0.00555838
0.00555804
0.00555756
0.00555734
0.00555713
0.00555686
0.00555656
0.00555639
0.00555638
0.00555662
0.0055565
0.00555599
0.00555534
0.00555482
0.00555449
0.00555432
0.00555461
0.00555482
0.0055547
0.00555443
0.00555433
0.00555455
0.00555464
0.00555433
0.00555336
0.00555245
0.0055521
0.00555199
0.00555122
0.00554964
0.00554796
0.00554688
0.00554667
0.00554676
0.00554683
0.0055469
0.00554691
0.00554666
0.00554619
0.00554565
0.00554511
0.00554416
0.00554279
0.00554151
0.0055406
0.00553994
0.00553938
0.00553895
0.00553869
0.00553855
0.00553861
0.00553898
0.00553944
0.00553961
0.00553908
0.00553786
0.00553624
0.00553445
0.00553251
0.00553036
0.00552803
0.00552572
0.00552368
0.00552198
0.00552062
0.00551976
0.00551944
0.00551951
0.00551969
0.00551972
0.00551951
0.00551915
0.00551869
0.00551808
0.00551714
0.00551574
0.0055139
0.00551177
0.00550956
0.00550747
0.00550561
0.00550406
0.00550285
0.00550197
0.00550136
0.00550092
0.0055005
0.00549997
0.00549921
0.00549817
0.00549688
0.00549543
0.00549394
0.00549243
0.00549088
0.00548931
0.00548795
0.00548716
0.00548719
0.00548778
0.00548833
0.00548838
0.00548794
0.00548731
0.00548647
0.00548504
0.00548287
0.00548048
0.00547874
0.00547799
0.00547772
0.00547753
0.00547759
0.00547821
0.0054792
0.0054799
0.00547995
0.00547957
0.00547898
0.0054781
0.00547693
0.00547584
0.00547516
0.00547491
0.00547504
0.00547563
0.00547654
0.0054773
0.00547746
0.00547707
0.00547638
0.00547546
0.00547432
0.00547322
0.00547262
0.00547274
0.00547337
0.00547413
0.00547474
0.00547507
0.00547499
0.00547435
0.00547322
0.00547193
0.00547089
0.0054703
0.00547006
0.0054699
0.00546975
0.00546963
0.00546941
0.00546871
0.00546742
0.00546593
0.00546484
0.00546446
0.00546478
0.00546554
0.00546627
0.00546651
0.00546614
0.00546534
0.00546438
0.00546365
0.00546351
0.00546404
0.00546502
0.00546611
0.00546692
0.00546702
0.00546621
0.00546483
0.00546361
0.0054631
0.00546314
0.00546324
0.00546335
0.00546336
0.00546279
0.00546181
0.00546116
0.00546115
0.00546159
0.00546197
0.00546178
0.00546102
0.00546025
0.0054597
0.00545924
0.00545921
0.00545926
0.00545897
0.00545844
0.00545907
0.00546003
0.00546062
0.00546085
0.00545943
0.00545847
0.00545768
0.00545649
0.0054556
0.00545452
0.00545391
0.00545187
0.00545157
0.00545171
0.00545313
0.00545394
0.0054531
0.00545328
0.00545101
0.00545233
0.0054559
0.00545549
0.00545503
0.00545265
0.0054537
0.00545317
0.0054505
0.00544959
0.00544897
0.00545009
0.00544906
0.00545057
0.00545125
0.00545362
0.00545132
0.00544898
0.00545211
0.005449
0.00544879
0.00545045
0.00545113
0.00545594
0.00545034
0.00545621
0.00545234
0.00544866
0.00544931
0.00544956
0.00545036
0.00545212
0.00544985
0.00545467
0.00545727
0.0054583
0.00546145
0.0054655
0.00546799
0.00546932
0.00547026
0.00546949
0.0054664
0.00546291
0.00546143
0.00546203
0.0054624
0.0054611
0.00545852
0.00545617
0.00545491
0.00545508
0.00545662
0.00545895
0.00546123
0.00546302
0.005464
0.00546406
0.00546317
0.00546112
0.00545767
0.00545268
0.00544868
0.0054486
0.00544856
0.00544853
0.0054485
0.00544849
0.00544849
0.00544849
0.0054485
0.00544852
0.00544856
0.00544865
0.00544881
0.00544912
0.00544983
0.00544959
0.00544908
0.00544884
0.00544873
0.00544864
0.00544859
0.00544863
0.00544877
0.00544904
0.00545084
0.00544897
0.00544874
0.00544869
0.00544896
0.00546169
0.00547467
0.00546914
0.00545109
0.00544912
0.00546151
0.00547621
0.00546797
0.00544898
0.00544881
0.00544944
0.00545044
0.00544864
0.00544858
0.00544902
0.00546209
0.00545532
0.00547295
0.00547221
0.00546127
0.00173197
0.00160826
0.00127439
0.00120091
0.00120853
0.00121639
0.00121147
0.00120795
0.00120666
0.00120533
0.00120591
0.00120791
0.00121023
0.00121824
0.00121793
0.00121668
0.00121507
0.00121202
0.00121035
0.0012092
0.00120714
0.00120444
0.00120076
0.00119548
0.00119081
0.00118769
0.00118382
0.00118047
0.00117631
0.00117305
0.00117224
0.00116891
0.00115962
0.00114713
0.0011439
0.00114298
0.00113931
0.00113398
0.00112723
0.00112322
0.001122
0.00111939
0.00111259
0.00110748
0.00110559
0.00110438
0.00109972
0.00109494
0.00109236
0.00109077
0.00108824
0.00108488
0.00108284
0.00108111
0.00108022
0.00107971
0.00107914
0.00107841
0.00107821
0.00107814
0.00107794
0.00107805
0.00107845
0.00107946
0.00108086
0.00108238
0.00108412
0.00108617
0.00108853
0.00109131
0.00109454
0.00109845
0.00110346
0.00111006
0.00111865
0.0011295
0.00114223
0.00115245
0.00115241
0.00116494
0.00118379
0.00123007
0.001291
0.00147523
0.00143056
0.00124603
0.00120196
0.00115238
0.00106413
0.0010586
0.00102173
0.00102517
0.00102477
0.00102652
0.0010245
0.00102553
0.00102388
0.00102318
0.0010234
0.00102347
0.00102443
0.0010245
0.00102666
0.00102751
0.00103315
0.00103241
0.001027
0.00102676
0.00102537
0.00102374
0.00102357
0.00102301
0.00102289
0.00102319
0.00102311
0.00102269
0.00102285
0.00102264
0.00102235
0.00102169
0.0010225
0.00102319
0.00102649
0.00102622
0.00102261
0.00102267
0.00102155
0.00102147
0.00102179
0.00102174
0.00102175
0.00102178
0.00102173
0.00102177
0.00102185
0.00102189
0.00102184
0.00102179
0.00102176
0.00102173
0.00102172
0.00102174
0.00102178
0.00102183
0.00102187
0.00102184
0.00102181
0.00102179
0.0010218
0.00102183
0.00102187
0.00102193
0.00102195
0.00102197
0.00102199
0.00102199
0.00102201
0.00102204
0.00102209
0.00102215
0.0010222
0.00102222
0.00102224
0.00102227
0.00102229
0.00102234
0.00102238
0.00102243
0.0010225
0.00102254
0.00102256
0.00102258
0.00102261
0.00102262
0.00102265
0.00102269
0.00102275
0.00102277
0.00102278
0.0010228
0.00102285
0.00102291
0.00102299
0.00102309
0.00102316
0.00102318
0.0010232
0.00102324
0.00102329
0.00102337
0.00102348
0.00102355
0.00102359
0.00102364
0.00102371
0.00102382
0.00102393
0.00102399
0.00102404
0.0010241
0.00102419
0.00102427
0.00102436
0.00102448
0.00102463
0.00102469
0.00102477
0.00102486
0.00102496
0.00102505
0.00102515
0.00102521
0.00102532
0.00102544
0.00102558
0.00102572
0.00102586
0.00102596
0.00102603
0.00102613
0.00102626
0.00102642
0.00102659
0.00102669
0.0010268
0.00102691
0.00102704
0.00102719
0.00102731
0.00102739
0.00102748
0.00102756
0.00102767
0.00102782
0.00102797
0.00102809
0.00102821
0.00102834
0.00102846
0.00102856
0.00102867
0.00102874
0.0010288
0.00102887
0.00102896
0.00102906
0.00102917
0.00102924
0.00102934
0.00102944
0.00102953
0.00102961
0.0010297
0.00102981
0.0010299
0.00102986
0.00102979
0.00102973
0.00102972
0.00102976
0.00102983
0.0010299
0.00102998
0.00103008
0.00103017
0.00103026
0.00103032
0.00103037
0.00103039
0.00103038
0.00103036
0.00103035
0.00103035
0.00103037
0.0010304
0.00103045
0.00103051
0.00103059
0.0010307
0.00103082
0.00103093
0.00103103
0.0010311
0.00103115
0.00103119
0.00103123
0.00103126
0.00103128
0.00103131
0.00103134
0.00103137
0.00103142
0.0010315
0.00103158
0.00103168
0.00103177
0.00103185
0.00103192
0.00103198
0.00103203
0.00103206
0.00103206
0.00103205
0.00103203
0.00103201
0.00103198
0.00103196
0.00103193
0.00103191
0.0010319
0.00103188
0.00103187
0.00103186
0.00103185
0.00103184
0.00103183
0.00103182
0.0010318
0.00103179
0.00103177
0.00103175
0.00103173
0.00103172
0.0010317
0.00103169
0.00103168
0.00103167
0.00103168
0.00103168
0.00103168
0.00103167
0.00103166
0.00103165
0.00103163
0.00103161
0.00103158
0.00103157
0.00103156
0.00103155
0.00103155
0.00103155
0.00103155
0.00103156
0.00103156
0.00103156
0.00103156
0.00103155
0.00103154
0.00103153
0.00103152
0.00103151
0.00103151
0.00103151
0.00103152
0.00103152
0.00103153
0.00103153
0.00103152
0.00103151
0.0010315
0.00103149
0.00103148
0.00103148
0.00103148
0.00103148
0.00103149
0.00103149
0.00103149
0.00103149
0.00103148
0.00103147
0.00103146
0.00103145
0.00103144
0.00103144
0.00103144
0.00103143
0.00103143
0.00103142
0.00103141
0.0010314
0.00103139
0.00103138
0.00103138
0.00103138
0.00103138
0.00103139
0.00103139
0.00103138
0.00103137
0.00103136
0.00103136
0.00103136
0.00103137
0.00103137
0.00103138
0.00103139
0.00103139
0.00103138
0.00103137
0.00103136
0.00103135
0.00103135
0.00103135
0.00103135
0.00103135
0.00103134
0.00103133
0.00103133
0.00103133
0.00103133
0.00103133
0.00103133
0.00103132
0.00103131
0.00103131
0.0010313
0.0010313
0.0010313
0.0010313
0.00103129
0.0010313
0.0010313
0.00103131
0.00103131
0.00103129
0.00103127
0.00103126
0.00103126
0.00103126
0.00103125
0.00103124
0.00103122
0.00103122
0.00103121
0.00103123
0.00103123
0.00103123
0.00103123
0.00103121
0.00103122
0.00103125
0.00103125
0.00103124
0.00103121
0.00103122
0.00103122
0.00103119
0.00103119
0.00103118
0.0010312
0.00103118
0.00103119
0.0010312
0.00103121
0.00103119
0.00103118
0.00103119
0.00103118
0.00103119
0.00103119
0.00103121
0.00103127
0.00103104
0.0010312
0.00103118
0.00103118
0.00103118
0.00103119
0.0010312
0.00103121
0.00103119
0.00103126
0.00103129
0.00103131
0.00103135
0.00103138
0.00103139
0.0010314
0.00103141
0.0010314
0.00103138
0.00103135
0.00103134
0.00103135
0.00103134
0.00103132
0.00103128
0.00103126
0.00103125
0.00103125
0.00103127
0.0010313
0.00103133
0.00103134
0.00103134
0.00103134
0.00103132
0.00103129
0.00103125
0.0010312
0.00103117
0.00103117
0.00103117
0.00103117
0.00103117
0.00103117
0.00103117
0.00103117
0.00103117
0.00103117
0.00103117
0.00103117
0.00103118
0.00103118
0.00103118
0.00103118
0.00103118
0.00103118
0.00103118
0.00103117
0.00103117
0.00103117
0.00103118
0.00103118
0.00103119
0.00103118
0.00103118
0.00103118
0.00103119
0.00103135
0.00103142
0.00103132
0.00103119
0.00103121
0.00103137
0.00103145
0.00103129
0.00103118
0.00103118
0.00103122
0.00103118
0.00103118
0.00103118
0.00103121
0.0010313
0.00103127
0.0010314
0.00103132
0.00103131
0.00172776
0.00147012
0.00113035
0.00106945
0.00106456
0.001066
0.00106661
0.0010679
0.00106919
0.00107051
0.00107166
0.00107273
0.0010737
0.0010745
0.0010753
0.00107585
0.00107624
0.00107651
0.00107667
0.00107673
0.00107667
0.00107651
0.00107644
0.00107644
0.00107636
0.00107611
0.00107564
0.00107505
0.00107463
0.0010739
0.00107278
0.00107241
0.00107288
0.00107286
0.00107144
0.00106979
0.00106875
0.00106851
0.00106853
0.00106778
0.00106684
0.00106665
0.00106686
0.00106655
0.00106591
0.00106534
0.00106504
0.00106458
0.00106392
0.00106341
0.00106321
0.00106302
0.00106261
0.0010621
0.00106182
0.00106185
0.00106179
0.0010616
0.00106171
0.00106213
0.00106241
0.00106247
0.0010627
0.00106339
0.00106426
0.00106498
0.00106572
0.00106649
0.00106726
0.00106798
0.00106843
0.00106836
0.00106786
0.00106696
0.00106508
0.00106128
0.0010552
0.00104718
0.00104007
0.00103893
0.00104791
0.00107057
0.00111335
0.00114156
0.00118644
0.0012312
0.00131395
0.00144962
0.00140364
0.00120458
0.00116855
0.00105391
0.00105069
0.00101228
0.0010137
0.00101664
0.00101706
0.00101436
0.00101522
0.00101341
0.00101276
0.00101297
0.00101346
0.00101454
0.00101474
0.00101624
0.0010173
0.00101781
0.00102202
0.001021
0.00101553
0.00101524
0.0010128
0.00101243
0.00101158
0.00101121
0.00101124
0.00101103
0.00101074
0.00101053
0.00101055
0.00101076
0.00101078
0.00101169
0.00101166
0.00101487
0.00101431
0.00101067
0.00101056
0.00100911
0.00100895
0.00100875
0.00100857
0.00100846
0.00100836
0.00100817
0.001008
0.00100787
0.00100775
0.00100761
0.00100745
0.00100731
0.00100716
0.00100702
0.00100688
0.00100673
0.00100658
0.00100644
0.00100631
0.00100617
0.00100604
0.0010059
0.00100578
0.00100565
0.00100553
0.00100541
0.00100529
0.00100516
0.00100504
0.00100493
0.00100482
0.00100471
0.00100459
0.00100448
0.00100437
0.00100426
0.00100415
0.00100405
0.00100395
0.00100385
0.00100375
0.00100365
0.00100355
0.00100346
0.00100337
0.00100327
0.00100318
0.00100309
0.001003
0.00100292
0.00100283
0.00100275
0.00100267
0.00100259
0.00100251
0.00100243
0.00100235
0.00100228
0.0010022
0.00100212
0.00100205
0.00100198
0.00100191
0.00100185
0.00100178
0.00100171
0.00100165
0.00100159
0.00100153
0.00100147
0.00100141
0.00100135
0.00100129
0.00100124
0.00100119
0.00100114
0.00100109
0.00100104
0.00100099
0.00100094
0.00100089
0.00100085
0.0010008
0.00100077
0.00100073
0.00100069
0.00100065
0.00100062
0.00100058
0.00100055
0.00100052
0.00100049
0.00100046
0.00100043
0.00100041
0.00100038
0.00100036
0.00100034
0.00100032
0.0010003
0.00100029
0.00100027
0.00100026
0.00100025
0.00100024
0.00100023
0.00100022
0.00100022
0.00100021
0.0010002
0.0010002
0.00100019
0.00100019
0.00100019
0.00100018
0.00100018
0.00100018
0.00100018
0.00100017
0.00100017
0.00100017
0.00100017
0.00100017
0.00100017
0.00100017
0.00100017
0.00100017
0.00100016
0.00100016
0.00100016
0.00100016
0.00100016
0.00100016
0.00100016
0.00100016
0.00100016
0.00100016
0.00100016
0.00100016
0.00100016
0.00100016
0.00100016
0.00100016
0.00100016
0.00100016
0.00100016
0.00100016
0.00100016
0.00100016
0.00100016
0.00100016
0.00100016
0.00100016
0.00100016
0.00100016
0.00100016
0.00100016
0.00100016
0.00100016
0.00100016
0.00100016
0.00100016
0.00100016
0.00100016
0.00100016
0.00100016
0.00100016
0.00100016
0.00100016
0.00100016
0.00100016
0.00100016
0.00100016
0.00100016
0.00100016
0.00100016
0.00100016
0.00100016
0.00100016
0.00100016
0.00100016
0.00100015
0.00100015
0.00100015
0.00100015
0.00100015
0.00100015
0.00100015
0.00100015
0.00100015
0.00100015
0.00100015
0.00100015
0.00100015
0.00100015
0.00100015
0.00100015
0.00100015
0.00100014
0.00100014
0.00100014
0.00100014
0.00100014
0.00100014
0.00100014
0.00100014
0.00100014
0.00100014
0.00100014
0.00100014
0.00100014
0.00100014
0.00100014
0.00100014
0.00100014
0.00100014
0.00100014
0.00100014
0.00100014
0.00100014
0.00100014
0.00100014
0.00100014
0.00100014
0.00100014
0.00100014
0.00100014
0.00100014
0.00100014
0.00100014
0.00100014
0.00100014
0.00100014
0.00100014
0.00100014
0.00100014
0.00100013
0.00100013
0.00100013
0.00100013
0.00100013
0.00100013
0.00100013
0.00100013
0.00100013
0.00100013
0.00100013
0.00100013
0.00100013
0.00100013
0.00100013
0.00100013
0.00100013
0.00100013
0.00100013
0.00100013
0.00100013
0.00100013
0.00100013
0.00100013
0.00100013
0.00100013
0.00100013
0.00100013
0.00100013
0.00100013
0.00100013
0.00100013
0.00100013
0.00100013
0.00100013
0.00100013
0.00100013
0.00100013
0.00100013
0.00100013
0.00100013
0.00100013
0.00100013
0.00100013
0.00100013
0.00100013
0.00100013
0.00100013
0.00100013
0.00100013
0.00100013
0.00100013
0.00100013
0.00100013
0.00100013
0.00100013
0.00100013
0.00100013
0.00100013
0.00100013
0.00100013
0.00100013
0.00100013
0.00100013
0.00100013
0.00100013
0.00100013
0.00100013
0.00100013
0.00100013
0.00100013
0.00100013
0.00100013
0.00100013
0.00100013
0.00100013
0.00100013
0.00100013
0.00100013
0.00100013
0.00100013
0.00100013
0.00100013
0.00100013
0.00100013
0.00100013
0.00100013
0.00100013
0.00100013
0.00100013
0.00100013
0.00100013
0.00100013
0.00100014
0.00100014
0.00100013
0.00100013
0.00100012
0.00100013
0.00100012
0.00100012
0.00100012
0.00100012
0.00100012
0.00100012
0.00100012
0.00100012
0.00100013
0.00100012
0.00100013
0.00100013
0.00100013
0.00100013
0.00100013
0.00100013
0.00100013
0.00100013
0.00100013
0.00100013
0.00100013
0.00100013
0.00100013
0.00100013
0.00100013
0.00100013
0.00100013
0.00100013
0.00100013
0.00100013
0.00100013
0.00100013
0.00100013
0.00100013
0.00100013
0.00100013
0.00100013
0.00100013
0.00100013
0.00100013
0.00100013
0.00100013
0.00100013
0.00100013
0.00100013
0.00100013
0.00100013
0.00100013
0.00100013
0.00100013
0.00100013
0.00100013
0.00100013
0.00100013
0.00100013
0.00100013
0.00100013
0.00100013
0.00100013
0.00100013
0.00100013
0.00100013
0.00100013
0.00100013
0.00100013
0.00100013
0.00100013
0.00100013
0.00100013
0.00100013
0.00100013
0.00100013
0.00100013
0.00100013
0.00100013
0.00100013
0.00100013
0.00100013
0.00100013
0.00100013
0.00100013
0.00100013
0.00100013
0.00100014
0.00100013
0.00177785
0.00147498
0.0011295
0.00106668
0.00106336
0.00106586
0.0010673
0.00106916
0.00107066
0.00107191
0.00107293
0.00107389
0.00107472
0.00107539
0.0010759
0.00107624
0.00107651
0.00107671
0.00107688
0.00107699
0.00107701
0.00107689
0.00107675
0.00107676
0.00107682
0.00107682
0.0010766
0.00107617
0.00107577
0.00107518
0.00107436
0.00107402
0.00107408
0.00107403
0.00107324
0.00107213
0.00107118
0.00107055
0.00107014
0.00106941
0.00106851
0.00106808
0.00106803
0.00106775
0.00106728
0.00106686
0.00106657
0.00106624
0.00106576
0.00106528
0.00106507
0.00106492
0.00106431
0.00106366
0.00106338
0.00106323
0.00106306
0.00106298
0.00106329
0.00106375
0.00106397
0.00106393
0.00106389
0.00106421
0.00106464
0.00106479
0.00106484
0.00106486
0.00106489
0.00106481
0.00106436
0.00106326
0.00106174
0.00105994
0.00105743
0.00105371
0.00104933
0.00104476
0.0010397
0.00103443
0.00102933
0.00102646
0.00102956
0.00104457
0.00105772
0.00108537
0.00112725
0.00116067
0.00121512
0.00126833
0.00143954
0.00139165
0.00120227
0.00116931
0.00105191
0.00104897
0.00101232
0.00101323
0.00101694
0.00101723
0.00101403
0.00101511
0.00101385
0.00101321
0.00101334
0.00101381
0.00101466
0.00101514
0.00101504
0.00101659
0.00101656
0.00102064
0.00101964
0.0010147
0.00101438
0.00101202
0.00101166
0.00101097
0.00101065
0.00101074
0.00101062
0.00101037
0.00101021
0.00101021
0.00101028
0.00101025
0.00101117
0.0010111
0.0010139
0.00101339
0.00101017
0.00101006
0.00100863
0.00100855
0.00100836
0.00100818
0.00100799
0.00100781
0.00100769
0.00100753
0.00100739
0.00100728
0.00100714
0.00100697
0.00100682
0.00100668
0.00100654
0.00100639
0.00100626
0.00100612
0.00100599
0.00100585
0.00100572
0.00100559
0.00100547
0.00100534
0.00100522
0.0010051
0.00100498
0.00100487
0.00100476
0.00100465
0.00100453
0.00100441
0.0010043
0.0010042
0.00100409
0.00100399
0.00100389
0.00100379
0.00100369
0.00100358
0.00100349
0.00100339
0.0010033
0.0010032
0.00100311
0.00100302
0.00100293
0.00100284
0.00100275
0.00100267
0.00100258
0.00100249
0.00100241
0.00100234
0.00100226
0.00100219
0.00100211
0.00100204
0.00100196
0.00100189
0.00100182
0.00100175
0.00100168
0.00100161
0.00100155
0.00100149
0.00100143
0.00100137
0.00100131
0.00100125
0.00100119
0.00100113
0.00100108
0.00100103
0.00100098
0.00100093
0.00100088
0.00100083
0.00100079
0.00100074
0.00100069
0.00100065
0.0010006
0.00100057
0.00100053
0.00100049
0.00100046
0.00100042
0.00100039
0.00100036
0.00100033
0.0010003
0.00100027
0.00100024
0.00100022
0.0010002
0.00100018
0.00100016
0.00100014
0.00100013
0.00100011
0.0010001
0.00100009
0.00100008
0.00100007
0.00100006
0.00100005
0.00100004
0.00100003
0.00100003
0.00100002
0.00100002
0.00100001
0.00100001
0.001
0.001
0.000999997
0.000999995
0.000999993
0.00099999
0.000999989
0.000999987
0.000999985
0.000999983
0.000999981
0.00099998
0.000999979
0.000999978
0.000999976
0.000999975
0.000999974
0.000999972
0.000999971
0.000999969
0.000999968
0.000999968
0.000999967
0.000999966
0.000999965
0.000999965
0.000999964
0.000999963
0.000999962
0.00099996
0.000999959
0.000999957
0.000999956
0.000999955
0.000999954
0.000999953
0.000999952
0.000999952
0.000999951
0.000999951
0.000999951
0.000999951
0.000999951
0.000999951
0.00099995
0.000999949
0.000999948
0.000999947
0.000999945
0.000999943
0.000999942
0.00099994
0.000999939
0.000999938
0.000999937
0.000999936
0.000999936
0.000999935
0.000999935
0.000999935
0.000999935
0.000999935
0.000999935
0.000999934
0.000999934
0.000999933
0.000999932
0.000999931
0.00099993
0.000999929
0.000999929
0.000999928
0.000999928
0.000999928
0.000999928
0.000999928
0.000999928
0.000999928
0.000999927
0.000999927
0.000999926
0.000999926
0.000999925
0.000999924
0.000999924
0.000999924
0.000999924
0.000999924
0.000999924
0.000999924
0.000999924
0.000999924
0.000999923
0.000999923
0.000999922
0.000999922
0.000999921
0.000999921
0.000999921
0.000999921
0.00099992
0.000999921
0.000999921
0.00099992
0.00099992
0.00099992
0.00099992
0.000999919
0.000999919
0.000999919
0.000999919
0.000999919
0.000999919
0.000999919
0.000999918
0.000999918
0.000999918
0.000999918
0.000999917
0.000999917
0.000999917
0.000999917
0.000999916
0.000999916
0.000999916
0.000999916
0.000999916
0.000999916
0.000999916
0.000999916
0.000999916
0.000999916
0.000999916
0.000999915
0.000999915
0.000999915
0.000999915
0.000999915
0.000999915
0.000999915
0.000999915
0.000999915
0.000999915
0.000999915
0.000999914
0.000999914
0.000999914
0.000999914
0.000999914
0.000999914
0.000999914
0.000999914
0.000999913
0.000999913
0.000999913
0.000999913
0.000999913
0.000999913
0.000999913
0.000999913
0.000999913
0.000999913
0.000999913
0.000999913
0.000999913
0.000999913
0.000999913
0.000999912
0.000999912
0.000999912
0.000999912
0.000999912
0.000999912
0.000999912
0.000999912
0.000999912
0.000999912
0.000999912
0.000999912
0.000999912
0.000999912
0.000999912
0.000999912
0.000999912
0.000999912
0.000999912
0.000999912
0.000999912
0.000999912
0.000999911
0.000999911
0.000999911
0.000999911
0.000999911
0.000999911
0.000999911
0.000999911
0.000999911
0.000999911
0.000999911
0.000999911
0.000999911
0.000999911
0.000999911
0.000999911
0.000999911
0.000999911
0.000999915
0.000999914
0.000999916
0.000999932
0.000999927
0.000999914
0.000999912
0.000999912
0.000999911
0.00099991
0.00099991
0.00099991
0.00099991
0.00099991
0.00099991
0.00099991
0.00099991
0.000999909
0.000999909
0.000999909
0.000999909
0.000999909
0.000999909
0.000999909
0.000999909
0.000999909
0.000999909
0.000999909
0.000999909
0.00099991
0.000999909
0.000999909
0.000999909
0.00099991
0.00099991
0.000999911
0.000999911
0.000999912
0.000999911
0.000999911
0.000999911
0.00099991
0.000999911
0.000999911
0.000999911
0.000999911
0.000999912
0.000999912
0.000999912
0.000999912
0.000999912
0.000999912
0.000999912
0.000999913
0.000999913
0.000999913
0.000999914
0.000999914
0.000999914
0.000999914
0.000999914
0.000999914
0.000999914
0.000999914
0.000999914
0.000999914
0.000999914
0.000999915
0.000999915
0.000999915
0.000999915
0.000999915
0.000999914
0.000999914
0.000999914
0.000999914
0.000999914
0.000999914
0.000999914
0.000999914
0.000999914
0.000999915
0.000999916
0.000999914
0.000999917
0.000999914
0.000999914
0.000999915
0.000999921
0.000999914
0.000999914
0.000999914
0.000999914
0.000999913
0.000999914