/*--------------------------------*- C++ -*----------------------------------*\
| =========                 |                                                 |
| \\      /  F ield         | OpenFOAM: The Open Source CFD Toolbox           |
|  \\    /   O peration     | Version:  v2006                                 |
|   \\  /    A nd           | Website:  www.openfoam.com                      |
|    \\/     M anipulation  |                                                 |
\*---------------------------------------------------------------------------*/
FoamFile
{
    version     2.0;
    format      ascii;
    class       surfaceScalarField;
    location    "1.2";
    object      phi;
}
// * * * * * * * * * * * * * * * * * * * * * * * * * * * * * * * * * * * * * //

dimensions      [0 3 -1 0 0 0 0];
oriented        oriented;


internalField   nonuniform List<scalar> 
65390
(
-1.20458e-06
-1.53971e-07
-1.30495e-06
8.27634e-08
-1.42454e-06
1.04063e-07
-1.51949e-06
8.27529e-08
-1.64253e-06
1.13623e-07
-1.78987e-06
1.40466e-07
-1.94169e-06
1.46927e-07
-2.09734e-06
1.52356e-07
-2.25763e-06
1.58297e-07
-2.41972e-06
1.61094e-07
-2.586e-06
1.66122e-07
-2.75888e-06
1.73432e-07
-2.93811e-06
1.80359e-07
-3.13518e-06
1.98707e-07
-3.33425e-06
2.0114e-07
-3.53403e-06
2.02227e-07
-3.73645e-06
2.05174e-07
-3.94135e-06
2.07909e-07
-4.14835e-06
2.10248e-07
-4.35985e-06
2.14967e-07
-4.57739e-06
2.21237e-07
-4.79811e-06
2.24611e-07
-5.01682e-06
2.22802e-07
-5.22839e-06
2.15855e-07
-5.43809e-06
2.14159e-07
-5.65249e-06
2.19002e-07
-5.8678e-06
2.20019e-07
-6.08014e-06
2.17109e-07
-6.2873e-06
2.11945e-07
-6.49666e-06
2.14156e-07
-6.70758e-06
2.1569e-07
-6.91333e-06
2.10468e-07
-7.10347e-06
1.94778e-07
-7.28655e-06
1.87559e-07
-7.47607e-06
1.93726e-07
-7.66422e-06
1.91982e-07
-7.84248e-06
1.81602e-07
-8.00246e-06
1.62795e-07
-8.16167e-06
1.61526e-07
-8.3269e-06
1.67152e-07
-8.4915e-06
1.66289e-07
-8.65088e-06
1.61035e-07
-8.78723e-06
1.38119e-07
-8.90927e-06
1.24019e-07
-9.03337e-06
1.26305e-07
-9.16293e-06
1.31925e-07
-9.27264e-06
1.12153e-07
-9.36165e-06
9.13988e-08
-9.4449e-06
8.55295e-08
-9.52986e-06
8.70613e-08
-9.60578e-06
7.78269e-08
-9.66263e-06
5.85716e-08
-9.70578e-06
4.47223e-08
-9.73919e-06
3.48394e-08
-9.77013e-06
3.22568e-08
-9.7968e-06
2.7879e-08
-9.81516e-06
1.94386e-08
-9.8267e-06
1.24719e-08
-9.83811e-06
1.21728e-08
-9.84538e-06
7.86462e-09
-9.84215e-06
-2.81502e-09
-9.82818e-06
-1.37213e-08
-9.80852e-06
-1.95452e-08
-9.78152e-06
-2.70187e-08
-9.74247e-06
-3.915e-08
-9.68869e-06
-5.39484e-08
-9.61904e-06
-6.9866e-08
-9.53247e-06
-8.67943e-08
-9.42801e-06
-1.04667e-07
-9.30274e-06
-1.25436e-07
-9.15053e-06
-1.52315e-07
-8.96304e-06
-1.87557e-07
-8.72732e-06
-2.3573e-07
-8.41653e-06
-3.1077e-07
-7.99411e-06
-4.2233e-07
-7.40771e-06
-5.8621e-07
-6.52878e-06
-8.78594e-07
-5.28028e-06
-1.24804e-06
-4.25917e-06
-1.02075e-06
-3.89131e-06
-3.67748e-07
-3.72304e-06
-1.68016e-07
-3.76564e-06
4.299e-08
-3.77725e-06
1.1823e-08
-3.83746e-06
6.05581e-08
-3.91682e-06
7.96932e-08
-3.8883e-06
-2.80417e-08
-3.85803e-06
-2.95707e-08
-3.84327e-06
-1.40367e-08
-3.84605e-06
3.47567e-09
-3.8415e-06
-3.79851e-09
-3.84073e-06
1.48507e-10
-3.83534e-06
-4.30167e-09
-3.81655e-06
-1.76233e-08
-3.79361e-06
-2.17018e-08
-3.76351e-06
-2.87768e-08
-3.72167e-06
-4.04562e-08
-3.66616e-06
-5.41397e-08
-3.59266e-06
-7.21683e-08
-3.48034e-06
-1.1106e-07
-3.37763e-06
-1.01549e-07
-3.32144e-06
-5.51273e-08
-3.29812e-06
-2.23302e-08
-3.28661e-06
-1.05943e-08
-3.26149e-06
-2.42427e-08
-3.24199e-06
-1.86638e-08
-3.2209e-06
-2.03002e-08
-3.19037e-06
-2.97888e-08
-3.15842e-06
-3.12454e-08
-3.12666e-06
-3.11254e-08
-3.09448e-06
-3.16188e-08
-3.0596e-06
-3.43737e-08
-3.0225e-06
-3.66104e-08
-2.98172e-06
-4.03037e-08
-2.93519e-06
-4.60427e-08
-2.88088e-06
-5.37484e-08
-2.81505e-06
-6.51845e-08
-2.72129e-06
-9.30156e-08
-2.63395e-06
-8.64851e-08
-2.58011e-06
-5.28894e-08
-2.5509e-06
-2.82046e-08
-2.53089e-06
-1.89697e-08
-2.50071e-06
-2.91489e-08
-2.47458e-06
-2.51376e-08
-2.44835e-06
-2.5299e-08
-2.4172e-06
-3.03229e-08
-2.38621e-06
-3.02637e-08
-2.35519e-06
-3.04174e-08
-2.32305e-06
-3.16745e-08
-2.29054e-06
-3.21657e-08
-2.25768e-06
-3.26448e-08
-2.22435e-06
-3.32161e-08
-2.19079e-06
-3.35361e-08
-2.15701e-06
-3.38183e-08
-2.12302e-06
-3.40488e-08
-2.08886e-06
-3.42337e-08
-2.05453e-06
-3.43644e-08
-2.02012e-06
-3.44044e-08
-1.98567e-06
-3.43965e-08
-1.95115e-06
-3.44015e-08
-1.91659e-06
-3.43747e-08
-1.88196e-06
-3.43758e-08
-1.84728e-06
-3.43531e-08
-1.8126e-06
-3.42901e-08
-1.77795e-06
-3.42035e-08
-1.74331e-06
-3.41434e-08
-1.7087e-06
-3.40732e-08
-1.67416e-06
-3.39528e-08
-1.63977e-06
-3.37822e-08
-1.60549e-06
-3.3632e-08
-1.57137e-06
-3.34491e-08
-1.53745e-06
-3.32449e-08
-1.50375e-06
-3.30288e-08
-1.47028e-06
-3.27849e-08
-1.4371e-06
-3.25148e-08
-1.40422e-06
-3.22075e-08
-1.37165e-06
-3.19052e-08
-1.33941e-06
-3.15908e-08
-1.3075e-06
-3.12607e-08
-1.27594e-06
-3.0929e-08
-1.24474e-06
-3.05796e-08
-1.21391e-06
-3.02139e-08
-1.18347e-06
-2.98512e-08
-1.15338e-06
-2.94996e-08
-1.12368e-06
-2.91364e-08
-1.09435e-06
-2.8757e-08
-1.06542e-06
-2.83764e-08
-1.03687e-06
-2.80101e-08
-1.00869e-06
-2.76411e-08
-9.80904e-07
-2.72619e-08
-9.53522e-07
-2.68665e-08
-9.26533e-07
-2.64842e-08
-8.99924e-07
-2.61131e-08
-8.7371e-07
-2.57262e-08
-8.47904e-07
-2.53243e-08
-8.22498e-07
-2.49309e-08
-7.97485e-07
-2.45427e-08
-7.72881e-07
-2.41403e-08
-7.48695e-07
-2.37287e-08
-7.2492e-07
-2.33258e-08
-7.01557e-07
-2.29251e-08
-6.78615e-07
-2.25137e-08
-6.56101e-07
-2.20968e-08
-6.34005e-07
-2.16877e-08
-6.12323e-07
-2.12822e-08
-5.91061e-07
-2.08681e-08
-5.70223e-07
-2.04486e-08
-5.49805e-07
-2.00341e-08
-5.29802e-07
-1.96232e-08
-5.10219e-07
-1.92082e-08
-4.91064e-07
-1.87878e-08
-4.72336e-07
-1.83686e-08
-4.54029e-07
-1.79558e-08
-4.36137e-07
-1.75464e-08
-4.18663e-07
-1.71351e-08
-4.01606e-07
-1.67211e-08
-3.84965e-07
-1.63089e-08
-3.68736e-07
-1.58993e-08
-3.5292e-07
-1.54902e-08
-3.37515e-07
-1.50831e-08
-3.22519e-07
-1.46812e-08
-3.07926e-07
-1.42843e-08
-2.93733e-07
-1.38919e-08
-2.79935e-07
-1.35041e-08
-2.66527e-07
-1.31194e-08
-2.53506e-07
-1.27368e-08
-2.40865e-07
-1.23599e-08
-2.28594e-07
-1.19928e-08
-2.16687e-07
-1.16351e-08
-2.05133e-07
-1.12883e-08
-1.93922e-07
-1.09556e-08
-1.83048e-07
-1.06303e-08
-1.72515e-07
-1.02991e-08
-1.6233e-07
-9.96021e-09
-1.5249e-07
-9.62223e-09
-1.42987e-07
-9.28793e-09
-1.33821e-07
-8.95149e-09
-1.2499e-07
-8.61708e-09
-1.16477e-07
-8.29789e-09
-1.08267e-07
-7.99758e-09
-1.00352e-07
-7.70615e-09
-9.27298e-08
-7.41759e-09
-8.53941e-08
-7.13729e-09
-7.83339e-08
-6.86724e-09
-7.15464e-08
-6.5996e-09
-6.50328e-08
-6.3304e-09
-5.87876e-08
-6.06702e-09
-5.27974e-08
-5.81813e-09
-4.70502e-08
-5.58187e-09
-4.15388e-08
-5.35284e-09
-3.62552e-08
-5.13061e-09
-3.11881e-08
-4.91733e-09
-2.63283e-08
-4.7109e-09
-2.16711e-08
-4.50809e-09
-1.72127e-08
-4.30946e-09
-1.29513e-08
-4.11544e-09
-8.88783e-09
-3.92438e-09
-5.0237e-09
-3.73551e-09
-1.35397e-09
-3.55313e-09
2.13448e-09
-3.38241e-09
5.45701e-09
-3.22263e-09
8.62568e-09
-3.06862e-09
1.16489e-08
-2.91679e-09
1.45319e-08
-2.76597e-09
1.72767e-08
-2.61634e-09
1.98838e-08
-2.46967e-09
2.23546e-08
-2.32995e-09
2.46934e-08
-2.20061e-09
2.69031e-08
-2.08001e-09
2.89831e-08
-1.96204e-09
3.09323e-08
-1.84383e-09
3.27576e-08
-1.73061e-09
3.4475e-08
-1.6299e-09
3.60995e-08
-1.54034e-09
3.76363e-08
-1.45301e-09
3.90839e-08
-1.36217e-09
4.04443e-08
-1.27341e-09
4.17289e-08
-1.19685e-09
4.29498e-08
-1.13379e-09
4.4109e-08
-1.07432e-09
4.51988e-08
-1.00785e-09
4.6213e-08
-9.35195e-10
4.71495e-08
-8.59889e-10
4.80101e-08
-7.85518e-10
4.87965e-08
-7.11972e-10
4.95112e-08
-6.40276e-10
5.01588e-08
-5.73039e-10
5.07435e-08
-5.10483e-10
5.1267e-08
-4.50138e-10
5.1735e-08
-3.96228e-10
5.21544e-08
-3.49785e-10
5.25326e-08
-3.10862e-10
5.28713e-08
-2.73775e-10
5.31686e-08
-2.34663e-10
5.34236e-08
-1.9419e-10
5.36364e-08
-1.53613e-10
5.38059e-08
-1.11961e-10
5.39301e-08
-6.82116e-11
5.40071e-08
-2.30088e-11
5.40354e-08
2.32513e-11
5.40131e-08
7.10113e-11
5.394e-08
1.18645e-10
5.38212e-08
1.60805e-10
5.36677e-08
1.92186e-10
5.34909e-08
2.12258e-10
5.32993e-08
2.24351e-10
5.30984e-08
2.31554e-10
5.28929e-08
2.34634e-10
5.26878e-08
2.33462e-10
5.24866e-08
2.29443e-10
5.22895e-08
2.25671e-10
5.20932e-08
2.25494e-10
5.18928e-08
2.30453e-10
5.16828e-08
2.40802e-10
5.14562e-08
2.58118e-10
5.12055e-08
2.82663e-10
5.09252e-08
3.12268e-10
5.0614e-08
3.43062e-10
5.02737e-08
3.7159e-10
4.99076e-08
3.96494e-10
4.95187e-08
4.18127e-10
4.91098e-08
4.36788e-10
4.86848e-08
4.51462e-10
4.82493e-08
4.60381e-10
4.78104e-08
4.62308e-10
4.73748e-08
4.57405e-10
4.69477e-08
4.47553e-10
4.65315e-08
4.35347e-10
4.61264e-08
4.23076e-10
4.57311e-08
4.12312e-10
4.53432e-08
4.04099e-10
4.49595e-08
3.99111e-10
4.4577e-08
3.97415e-10
4.41926e-08
3.9867e-10
4.38046e-08
4.0184e-10
4.34125e-08
4.05447e-10
4.30174e-08
4.0799e-10
4.26217e-08
4.0824e-10
4.22283e-08
4.05615e-10
4.18396e-08
4.0042e-10
4.14573e-08
3.93767e-10
4.10816e-08
3.86817e-10
4.07124e-08
3.79894e-10
4.03503e-08
3.72586e-10
3.99953e-08
3.65057e-10
3.96454e-08
3.59595e-10
3.92943e-08
3.60409e-10
3.89331e-08
3.70151e-10
3.85557e-08
3.85951e-10
3.8163e-08
4.00966e-10
3.7761e-08
4.09757e-10
3.73559e-08
4.126e-10
3.69504e-08
4.12706e-10
3.65471e-08
4.10078e-10
3.6153e-08
4.00533e-10
3.5777e-08
3.82187e-10
3.54218e-08
3.61021e-10
3.50802e-08
3.47187e-10
3.47411e-08
3.44366e-10
3.4399e-08
3.47096e-10
3.4053e-08
3.50591e-10
3.37008e-08
3.56697e-10
3.33359e-08
3.69038e-10
3.29544e-08
3.85351e-10
3.25599e-08
3.98238e-10
3.21597e-08
4.03583e-10
3.17592e-08
4.03695e-10
3.13608e-08
4.01272e-10
3.09682e-08
3.9534e-10
3.05848e-08
3.85817e-10
3.02101e-08
3.76895e-10
2.98396e-08
3.7262e-10
2.94684e-08
3.73173e-10
2.90923e-08
3.77969e-10
2.87061e-08
3.87889e-10
2.83062e-08
4.01551e-10
2.78944e-08
4.13246e-10
2.74777e-08
4.17947e-10
2.70626e-08
4.16045e-10
2.66527e-08
4.10493e-10
2.62509e-08
4.02224e-10
2.58599e-08
3.91241e-10
2.54795e-08
3.80596e-10
2.51041e-08
3.75504e-10
2.47256e-08
3.78519e-10
2.43384e-08
3.87233e-10
2.39413e-08
3.97178e-10
2.3536e-08
4.05296e-10
2.31258e-08
4.10082e-10
2.27157e-08
4.09912e-10
2.2312e-08
4.03291e-10
2.19206e-08
3.90974e-10
2.15433e-08
3.76806e-10
2.11772e-08
3.65483e-10
2.08172e-08
3.59294e-10
2.04595e-08
3.56902e-10
2.01031e-08
3.55485e-10
1.97481e-08
3.5402e-10
1.93939e-08
3.53022e-10
1.90419e-08
3.50749e-10
1.86975e-08
3.42967e-10
1.83675e-08
3.28386e-10
1.80542e-08
3.11663e-10
1.77529e-08
2.99479e-10
1.74558e-08
2.95261e-10
1.71551e-08
2.98925e-10
1.68458e-08
3.07529e-10
1.65285e-08
3.15625e-10
1.62087e-08
3.18125e-10
1.58934e-08
3.13743e-10
1.55876e-08
3.04358e-10
1.52928e-08
2.93242e-10
1.50064e-08
2.84858e-10
1.47216e-08
2.83256e-10
1.44308e-08
2.89156e-10
1.4129e-08
3.00103e-10
1.38149e-08
3.12289e-10
1.34919e-08
3.21104e-10
1.31682e-08
3.21792e-10
1.28541e-08
3.12119e-10
1.25563e-08
2.95959e-10
1.22727e-08
2.81835e-10
1.19952e-08
2.75732e-10
1.17176e-08
2.7597e-10
1.14393e-08
2.76667e-10
1.11605e-08
2.77279e-10
1.08821e-08
2.76789e-10
1.06109e-08
2.69581e-10
1.03514e-08
2.5774e-10
1.01002e-08
2.49465e-10
9.84987e-09
2.48435e-10
9.59566e-09
2.52338e-10
9.33824e-09
2.55577e-10
9.08438e-09
2.52074e-10
8.84077e-09
2.41929e-10
8.60718e-09
2.32006e-10
8.38144e-09
2.24278e-10
8.16249e-09
2.17616e-10
7.94541e-09
2.15868e-10
7.7294e-09
2.14956e-10
7.51917e-09
2.0933e-10
7.31644e-09
2.02004e-10
7.10805e-09
2.07861e-10
6.89256e-09
2.1515e-10
6.66827e-09
2.24117e-10
6.44405e-09
2.24177e-10
6.24619e-09
1.97915e-10
6.05561e-09
1.90641e-10
5.88047e-09
1.7517e-10
5.7358e-09
1.44587e-10
5.6222e-09
1.13352e-10
5.52358e-09
9.81553e-11
5.41732e-09
1.05534e-10
5.33438e-09
8.19622e-11
5.25311e-09
8.00327e-11
5.16929e-09
8.23292e-11
5.0658e-09
1.018e-10
4.95435e-09
1.09584e-10
4.8524e-09
9.99609e-11
4.75013e-09
1.00208e-10
4.67911e-09
6.89228e-11
4.58989e-09
8.71374e-11
4.45854e-09
1.29312e-10
4.33356e-09
1.22996e-10
4.21644e-09
1.15213e-10
4.12747e-09
8.71211e-11
4.02804e-09
9.76468e-11
3.93988e-09
8.64063e-11
3.88956e-09
4.86034e-11
3.86079e-09
2.70972e-11
3.86099e-09
-1.82883e-12
3.81907e-09
4.03366e-11
3.81028e-09
7.28775e-12
3.75945e-09
4.94093e-11
3.69978e-09
5.83181e-11
3.61225e-09
8.62325e-11
3.55368e-09
5.72996e-11
3.54618e-09
6.23546e-12
3.47448e-09
7.04242e-11
3.46395e-09
9.23083e-12
3.47395e-09
-1.13085e-11
3.42189e-09
5.0768e-11
3.3598e-09
6.08376e-11
3.20081e-09
1.57812e-10
3.14091e-09
5.88026e-11
3.02107e-09
1.18787e-10
2.90498e-09
1.15063e-10
3.02248e-09
-1.1846e-10
3.10456e-09
-8.34835e-11
3.82921e-09
-7.25985e-10
4.4702e-09
-6.42692e-10
4.65599e-09
-1.88124e-10
4.79339e-09
-1.3956e-10
4.77903e-09
1.22433e-11
4.70762e-09
6.93249e-11
4.60107e-09
1.04485e-10
4.44247e-09
1.56548e-10
4.22384e-09
2.16564e-10
3.96567e-09
2.56088e-10
3.68547e-09
2.78075e-10
3.38926e-09
2.9405e-10
3.09845e-09
2.88638e-10
2.8418e-09
2.54478e-10
2.62501e-09
2.14611e-10
2.42594e-09
1.96915e-10
2.21996e-09
2.03824e-10
2.0093e-09
2.08533e-10
1.81428e-09
1.92897e-10
1.64969e-09
1.62496e-10
1.51381e-09
1.33807e-10
1.39464e-09
1.17133e-10
1.27474e-09
1.17891e-10
1.13837e-09
1.34399e-10
9.76843e-10
1.59586e-10
7.89802e-10
1.85131e-10
5.83976e-10
2.03939e-10
3.69575e-10
2.12528e-10
1.57412e-10
2.10299e-10
-4.1925e-11
1.97472e-10
-2.13558e-10
1.69763e-10
-3.43169e-10
1.2773e-10
-4.12854e-10
6.7789e-11
-4.10058e-10
-4.70597e-12
-3.28052e-10
-8.39311e-11
-1.732e-10
-1.56787e-10
3.94363e-11
-2.14578e-10
2.8951e-10
-2.52012e-10
5.57252e-10
-2.6967e-10
8.27026e-10
-2.71683e-10
1.08757e-09
-2.62429e-10
1.32962e-09
-2.43909e-10
1.54189e-09
-2.14092e-10
1.71033e-09
-1.70235e-10
1.82255e-09
-1.13992e-10
1.8767e-09
-5.58944e-11
1.8837e-09
-8.72038e-12
1.86866e-09
1.33405e-11
1.8579e-09
9.07595e-12
1.87275e-09
-1.65161e-11
1.93334e-09
-6.22546e-11
2.05741e-09
-1.25734e-10
2.24555e-09
-1.8981e-10
2.47267e-09
-2.28795e-10
2.67971e-09
-2.08741e-10
2.80043e-09
-1.22428e-10
2.81616e-09
-1.74568e-11
2.78755e-09
2.68621e-11
2.82136e-09
-3.55672e-11
2.98547e-09
-1.65874e-10
3.19507e-09
-2.11367e-10
3.26894e-09
-7.56381e-11
3.10366e-09
1.63515e-10
2.77772e-09
3.24176e-10
2.5225e-09
2.5345e-10
2.48588e-09
3.48539e-11
2.49523e-09
-1.11197e-11
2.32669e-09
1.66752e-10
1.97608e-09
3.48816e-10
1.7289e-09
2.45367e-10
1.79529e-09
-6.82331e-11
1.95307e-09
-1.59661e-10
1.93218e-09
1.89535e-11
1.89268e-09
3.75094e-11
2.1188e-09
-2.28173e-10
2.4844e-09
-3.67695e-10
2.5342e-09
-5.18917e-11
2.35721e-09
1.74943e-10
2.26676e-09
8.85136e-11
1.96616e-09
2.98779e-10
1.68357e-09
2.80805e-10
6.0878e-10
-1.37777e-06
-1.00439e-07
-1.45977e-06
1.91845e-07
-1.5505e-06
2.17805e-07
-1.66695e-06
2.19028e-07
-1.79597e-06
2.59388e-07
-1.92837e-06
2.87031e-07
-2.06597e-06
2.96462e-07
-2.21103e-06
3.07531e-07
-2.36324e-06
3.19219e-07
-2.52236e-06
3.27891e-07
-2.69003e-06
3.40737e-07
-2.86611e-06
3.55987e-07
-3.05019e-06
3.70606e-07
-3.23943e-06
3.93961e-07
-3.43393e-06
4.01573e-07
-3.63418e-06
4.08373e-07
-3.83775e-06
4.14649e-07
-4.04203e-06
4.18154e-07
-4.24999e-06
4.24294e-07
-4.46013e-06
4.31347e-07
-4.67001e-06
4.3754e-07
-4.88098e-06
4.42214e-07
-5.0926e-06
4.41281e-07
-5.3046e-06
4.34958e-07
-5.51414e-06
4.31061e-07
-5.72046e-06
4.32915e-07
-5.92376e-06
4.31128e-07
-6.13086e-06
4.32175e-07
-6.33735e-06
4.26489e-07
-6.54116e-06
4.26037e-07
-6.75709e-06
4.39607e-07
-6.97699e-06
4.38189e-07
-7.18506e-06
4.10434e-07
-7.35256e-06
3.62359e-07
-7.5135e-06
3.61663e-07
-7.6915e-06
3.76678e-07
-7.87569e-06
3.72195e-07
-8.05876e-06
3.52016e-07
-8.21769e-06
3.26407e-07
-8.35708e-06
3.12344e-07
-8.50315e-06
3.18061e-07
-8.65155e-06
3.1507e-07
-8.78655e-06
2.78718e-07
-8.90768e-06
2.50669e-07
-9.02245e-06
2.46503e-07
-9.13794e-06
2.52689e-07
-9.24758e-06
2.26864e-07
-9.35132e-06
1.99997e-07
-9.44735e-06
1.86173e-07
-9.53666e-06
1.80775e-07
-9.61505e-06
1.60397e-07
-9.68204e-06
1.29553e-07
-9.74015e-06
1.06694e-07
-9.78594e-06
8.43315e-08
-9.82202e-06
7.18261e-08
-9.85222e-06
6.13615e-08
-9.87374e-06
4.39712e-08
-9.88646e-06
2.78965e-08
-9.89461e-06
2.26901e-08
-9.89764e-06
1.29348e-08
-9.89292e-06
-5.83491e-09
-9.8782e-06
-2.70477e-08
-9.85756e-06
-3.90562e-08
-9.83421e-06
-4.94632e-08
-9.79946e-06
-7.3183e-08
-9.74575e-06
-1.07079e-07
-9.67841e-06
-1.36724e-07
-9.59664e-06
-1.68134e-07
-9.49914e-06
-2.01723e-07
-9.38609e-06
-2.3803e-07
-9.25854e-06
-2.79378e-07
-9.11137e-06
-3.34208e-07
-8.94322e-06
-4.03328e-07
-8.75872e-06
-4.94673e-07
-8.56709e-06
-6.13277e-07
-8.38966e-06
-7.62835e-07
-8.29173e-06
-9.75615e-07
-8.32307e-06
-1.21595e-06
-8.05631e-06
-1.28719e-06
-7.12691e-06
-1.29652e-06
-5.85902e-06
-1.43497e-06
-4.68087e-06
-1.13467e-06
-4.18959e-06
-4.78743e-07
-3.90774e-06
-2.20655e-07
-3.8216e-06
-5.75718e-09
-3.78205e-06
-6.65762e-08
-3.77183e-06
-3.86894e-08
-3.83277e-06
4.79256e-08
-3.91161e-06
8.33937e-08
-3.8877e-06
-2.64324e-08
-3.86293e-06
-2.30096e-08
-3.84628e-06
-1.91869e-08
-3.82486e-06
-3.72227e-08
-3.80805e-06
-3.66249e-08
-3.78937e-06
-4.5502e-08
-3.7612e-06
-6.66701e-08
-3.7337e-06
-7.9794e-08
-3.70796e-06
-9.62037e-08
-3.69666e-06
-1.20794e-07
-3.66829e-06
-1.28474e-07
-3.59795e-06
-1.2415e-07
-3.47616e-06
-1.4293e-07
-3.35897e-06
-1.26683e-07
-3.29282e-06
-8.93578e-08
-3.25228e-06
-5.82962e-08
-3.22626e-06
-4.55044e-08
-3.19214e-06
-6.31999e-08
-3.15841e-06
-6.43892e-08
-3.13036e-06
-5.869e-08
-3.10235e-06
-5.92162e-08
-3.06767e-06
-6.86781e-08
-3.03251e-06
-7.13606e-08
-2.99658e-06
-7.57527e-08
-2.95926e-06
-8.27813e-08
-2.92255e-06
-8.9731e-08
-2.8877e-06
-9.91559e-08
-2.86541e-06
-1.14279e-07
-2.83245e-06
-1.18288e-07
-2.76976e-06
-1.14298e-07
-2.66992e-06
-1.26708e-07
-2.57309e-06
-1.14455e-07
-2.51396e-06
-8.69789e-08
-2.47526e-06
-6.26681e-08
-2.44818e-06
-5.13712e-08
-2.41518e-06
-6.25125e-08
-2.38546e-06
-5.93925e-08
-2.35591e-06
-5.95983e-08
-2.32288e-06
-6.4544e-08
-2.29009e-06
-6.4984e-08
-2.25748e-06
-6.54426e-08
-2.22415e-06
-6.68598e-08
-2.1905e-06
-6.75823e-08
-2.15666e-06
-6.80881e-08
-2.12247e-06
-6.86775e-08
-2.08806e-06
-6.9038e-08
-2.05358e-06
-6.9182e-08
-2.01902e-06
-6.91944e-08
-1.98439e-06
-6.91606e-08
-1.94966e-06
-6.91315e-08
-1.91488e-06
-6.90356e-08
-1.88006e-06
-6.89573e-08
-1.84522e-06
-6.88288e-08
-1.81038e-06
-6.8649e-08
-1.77557e-06
-6.84264e-08
-1.74081e-06
-6.82258e-08
-1.70611e-06
-6.80034e-08
-1.67153e-06
-6.77058e-08
-1.63709e-06
-6.73447e-08
-1.60281e-06
-6.70014e-08
-1.56872e-06
-6.66012e-08
-1.53487e-06
-6.61564e-08
-1.50124e-06
-6.57062e-08
-1.46785e-06
-6.52153e-08
-1.43474e-06
-6.46725e-08
-1.40192e-06
-6.40829e-08
-1.3694e-06
-6.34974e-08
-1.33718e-06
-6.28878e-08
-1.30528e-06
-6.22434e-08
-1.27374e-06
-6.15829e-08
-1.24254e-06
-6.08969e-08
-1.2117e-06
-6.01895e-08
-1.18124e-06
-5.94709e-08
-1.15115e-06
-5.87546e-08
-1.12144e-06
-5.80308e-08
-1.09209e-06
-5.72969e-08
-1.06312e-06
-5.65569e-08
-1.03453e-06
-5.58237e-08
-1.00632e-06
-5.50814e-08
-9.78503e-07
-5.43218e-08
-9.51093e-07
-5.35345e-08
-9.24089e-07
-5.27579e-08
-8.97488e-07
-5.19943e-08
-8.71291e-07
-5.12137e-08
-8.455e-07
-5.04172e-08
-8.20109e-07
-4.96331e-08
-7.95118e-07
-4.88563e-08
-7.7053e-07
-4.80604e-08
-7.46353e-07
-4.725e-08
-7.22584e-07
-4.64497e-08
-6.99221e-07
-4.56548e-08
-6.76269e-07
-4.48441e-08
-6.53735e-07
-4.402e-08
-6.31622e-07
-4.32007e-08
-6.0993e-07
-4.23833e-08
-5.88666e-07
-4.15502e-08
-5.67835e-07
-4.07065e-08
-5.47433e-07
-3.98713e-08
-5.27453e-07
-3.9047e-08
-5.07894e-07
-3.82182e-08
-4.88765e-07
-3.73755e-08
-4.7007e-07
-3.65279e-08
-4.51807e-07
-3.56879e-08
-4.33974e-07
-3.48534e-08
-4.16568e-07
-3.40191e-08
-3.99585e-07
-3.31875e-08
-3.83013e-07
-3.23687e-08
-3.66847e-07
-3.15598e-08
-3.51087e-07
-3.07507e-08
-3.35737e-07
-2.99433e-08
-3.20789e-07
-2.91468e-08
-3.0624e-07
-2.83618e-08
-2.92083e-07
-2.75854e-08
-2.78316e-07
-2.6818e-08
-2.64933e-07
-2.60583e-08
-2.51931e-07
-2.5303e-08
-2.39309e-07
-2.45548e-08
-2.27066e-07
-2.38173e-08
-2.15201e-07
-2.30899e-08
-2.0371e-07
-2.23766e-08
-1.92586e-07
-2.1686e-08
-1.81814e-07
-2.10156e-08
-1.71383e-07
-2.03498e-08
-1.61285e-07
-1.96833e-08
-1.51513e-07
-1.90256e-08
-1.42059e-07
-1.83784e-08
-1.3292e-07
-1.77316e-08
-1.24098e-07
-1.70863e-08
-1.15592e-07
-1.64581e-08
-1.07398e-07
-1.58529e-08
-9.95137e-08
-1.52599e-08
-9.19359e-08
-1.46735e-08
-8.46555e-08
-1.41042e-08
-7.76574e-08
-1.35592e-08
-7.09271e-08
-1.30301e-08
-6.44536e-08
-1.2509e-08
-5.82282e-08
-1.20019e-08
-5.22437e-08
-1.15163e-08
-4.64969e-08
-1.1047e-08
-4.09888e-08
-1.05849e-08
-3.57191e-08
-1.01309e-08
-3.06827e-08
-9.69155e-09
-2.58706e-08
-9.26797e-09
-2.12713e-08
-8.8591e-09
-1.68712e-08
-8.46714e-09
-1.26562e-08
-8.09304e-09
-8.61664e-09
-7.7307e-09
-4.74842e-09
-7.37404e-09
-1.05005e-09
-7.02475e-09
2.47916e-09
-6.6873e-09
5.83991e-09
-6.36111e-09
9.03491e-09
-6.04322e-09
1.20694e-08
-5.73312e-09
1.495e-08
-5.43152e-09
1.76816e-08
-5.13755e-09
2.02656e-08
-4.84951e-09
2.27053e-08
-4.57313e-09
2.5008e-08
-4.31508e-09
2.71853e-08
-4.07712e-09
2.92481e-08
-3.85115e-09
3.12014e-08
-3.62777e-09
3.30463e-08
-3.40847e-09
3.47856e-08
-3.20243e-09
3.64258e-08
-3.01329e-09
3.79731e-08
-2.83274e-09
3.94292e-08
-2.65131e-09
4.07927e-08
-2.4722e-09
4.20651e-08
-2.30826e-09
4.32526e-08
-2.16488e-09
4.43619e-08
-2.03223e-09
4.53969e-08
-1.89612e-09
4.63595e-08
-1.75471e-09
4.72544e-08
-1.61429e-09
4.80861e-08
-1.4784e-09
4.88565e-08
-1.34455e-09
4.95655e-08
-1.21251e-09
5.0215e-08
-1.08706e-09
5.08084e-08
-9.70526e-10
5.135e-08
-8.61007e-10
5.18379e-08
-7.56583e-10
5.22742e-08
-6.62021e-10
5.26597e-08
-5.75824e-10
5.29942e-08
-4.91156e-10
5.32774e-08
-4.03954e-10
5.35106e-08
-3.16504e-10
5.36958e-08
-2.31244e-10
5.38347e-08
-1.46728e-10
5.39284e-08
-6.19532e-11
5.39801e-08
2.06098e-11
5.39942e-08
9.90431e-11
5.39745e-08
1.74885e-10
5.39223e-08
2.48989e-10
5.38385e-08
3.16883e-10
5.37257e-08
3.71987e-10
5.35879e-08
4.12481e-10
5.3429e-08
4.42086e-10
5.3252e-08
4.64902e-10
5.30598e-08
4.81754e-10
5.28557e-08
4.92029e-10
5.26424e-08
4.97509e-10
5.24208e-08
5.02867e-10
5.21901e-08
5.12943e-10
5.19484e-08
5.29892e-10
5.16941e-08
5.53729e-10
5.1426e-08
5.85259e-10
5.11432e-08
6.24563e-10
5.08442e-08
6.69685e-10
5.0528e-08
7.1657e-10
5.01941e-08
7.61036e-10
4.98434e-08
8.00734e-10
4.94775e-08
8.35217e-10
4.90984e-08
8.64319e-10
4.87088e-08
8.86783e-10
4.83115e-08
9.00662e-10
4.79095e-08
9.04698e-10
4.75051e-08
8.99521e-10
4.71005e-08
8.87692e-10
4.66966e-08
8.72603e-10
4.62939e-08
8.57319e-10
4.58922e-08
8.43936e-10
4.54912e-08
8.33643e-10
4.50906e-08
8.26978e-10
4.46905e-08
8.23775e-10
4.4291e-08
8.23415e-10
4.38925e-08
8.24749e-10
4.34953e-08
8.26329e-10
4.30996e-08
8.26583e-10
4.27061e-08
8.23927e-10
4.23159e-08
8.17225e-10
4.19307e-08
8.06489e-10
4.15511e-08
7.93439e-10
4.11764e-08
7.80998e-10
4.08035e-08
7.71575e-10
4.04287e-08
7.65523e-10
4.00498e-08
7.61421e-10
3.96672e-08
7.58851e-10
3.9283e-08
7.60689e-10
3.88974e-08
7.7107e-10
3.85084e-08
7.89625e-10
3.8114e-08
8.09276e-10
3.77162e-08
8.20909e-10
3.73198e-08
8.2171e-10
3.69283e-08
8.16315e-10
3.6541e-08
8.08809e-10
3.61563e-08
7.96166e-10
3.57752e-08
7.73612e-10
3.54003e-08
7.45609e-10
3.5031e-08
7.25696e-10
3.46618e-08
7.22205e-10
3.42877e-08
7.29318e-10
3.39088e-08
7.37157e-10
3.35279e-08
7.44617e-10
3.31461e-08
7.57489e-10
3.27613e-08
7.76211e-10
3.2373e-08
7.92196e-10
3.19832e-08
7.98625e-10
3.15937e-08
7.98075e-10
3.12041e-08
7.95237e-10
3.08143e-08
7.89192e-10
3.04247e-08
7.79041e-10
3.0035e-08
7.69886e-10
2.96438e-08
7.66794e-10
2.92506e-08
7.68921e-10
2.8856e-08
7.74712e-10
2.84597e-08
7.86075e-10
2.80607e-08
8.02098e-10
2.76605e-08
8.14655e-10
2.72632e-08
8.16158e-10
2.68719e-08
8.08037e-10
2.64859e-08
7.9696e-10
2.61023e-08
7.86113e-10
2.57189e-08
7.7478e-10
2.53348e-08
7.64729e-10
2.4949e-08
7.61234e-10
2.45602e-08
7.67161e-10
2.4168e-08
7.79086e-10
2.37741e-08
7.90715e-10
2.33807e-08
7.98028e-10
2.29902e-08
7.99909e-10
2.26036e-08
7.95523e-10
2.22221e-08
7.83737e-10
2.18463e-08
7.65426e-10
2.14766e-08
7.44985e-10
2.11121e-08
7.28403e-10
2.07505e-08
7.19085e-10
2.03905e-08
7.14885e-10
2.00335e-08
7.10275e-10
1.96826e-08
7.02577e-10
1.93391e-08
6.9391e-10
1.90022e-08
6.84988e-10
1.86707e-08
6.71551e-10
1.83446e-08
6.51541e-10
1.80223e-08
6.30956e-10
1.77006e-08
6.18085e-10
1.73775e-08
6.15285e-10
1.70537e-08
6.19597e-10
1.67317e-08
6.26401e-10
1.64145e-08
6.29772e-10
1.61047e-08
6.24772e-10
1.58033e-08
6.11937e-10
1.55081e-08
5.96172e-10
1.52152e-08
5.82829e-10
1.49199e-08
5.76627e-10
1.46195e-08
5.80039e-10
1.43141e-08
5.9081e-10
1.40062e-08
6.04286e-10
1.3699e-08
6.1568e-10
1.33959e-08
6.20435e-10
1.30985e-08
6.15516e-10
1.28059e-08
6.01048e-10
1.25162e-08
5.82033e-10
1.22274e-08
5.67106e-10
1.19382e-08
5.61427e-10
1.16506e-08
5.60009e-10
1.13705e-08
5.53328e-10
1.10999e-08
5.44285e-10
1.08354e-08
5.37748e-10
1.05726e-08
5.28731e-10
1.03087e-08
5.18011e-10
1.0044e-08
5.10513e-10
9.78194e-09
5.06937e-10
9.52501e-09
5.05766e-10
9.27493e-09
5.02257e-10
9.03312e-09
4.90642e-10
8.80026e-09
4.71702e-10
8.57179e-09
4.57586e-10
8.34462e-09
4.48781e-10
8.11916e-09
4.40658e-10
7.89574e-09
4.37141e-10
7.67406e-09
4.34788e-10
7.45808e-09
4.23782e-10
7.24367e-09
4.15214e-10
7.03427e-09
4.1636e-10
6.83953e-09
4.09258e-10
6.64196e-09
4.2127e-10
6.4455e-09
4.20329e-10
6.28045e-09
3.62687e-10
6.169e-09
3.01712e-10
6.06962e-09
2.7399e-10
5.93304e-09
2.80305e-10
5.77171e-09
2.7347e-10
5.61183e-09
2.56391e-10
5.47636e-09
2.38922e-10
5.35773e-09
1.98077e-10
5.24104e-09
1.93793e-10
5.13464e-09
1.85453e-10
5.02274e-09
2.10148e-10
4.91587e-09
2.12688e-10
4.80908e-09
2.0287e-10
4.70529e-09
2.00061e-10
4.61331e-09
1.56995e-10
4.51604e-09
1.8057e-10
4.40031e-09
2.41298e-10
4.30053e-09
2.19142e-10
4.20689e-09
2.05323e-10
4.14802e-09
1.42559e-10
4.08602e-09
1.56287e-10
4.01743e-09
1.51712e-10
3.95912e-09
1.03718e-10
3.90423e-09
7.8874e-11
3.8392e-09
6.01907e-11
3.75638e-09
1.20279e-10
3.72775e-09
3.31562e-11
3.68944e-09
8.50813e-11
3.62443e-09
1.2077e-10
3.59646e-09
1.11705e-10
3.58186e-09
6.94205e-11
3.54622e-09
3.93927e-11
3.5305e-09
8.36469e-11
3.47284e-09
6.442e-11
3.32566e-09
1.33462e-10
3.28524e-09
8.88829e-11
3.22103e-09
1.22879e-10
3.0933e-09
2.8346e-10
3.26563e-09
-1.15461e-10
3.46616e-09
-8.42809e-11
4.31239e-09
-7.33621e-10
5.13243e-09
-9.41838e-10
5.61697e-09
-5.72292e-10
5.61302e-09
-7.26363e-10
5.23242e-09
-2.66954e-10
5.17856e-09
-1.38853e-10
5.12702e-09
-9.25009e-11
5.02969e-09
1.052e-10
4.89745e-09
1.97257e-10
4.72273e-09
2.74959e-10
4.49199e-09
3.83037e-10
4.26737e-09
4.36901e-10
4.07626e-09
4.42876e-10
3.88337e-09
4.66608e-10
3.66962e-09
5.03418e-10
3.45025e-09
5.0362e-10
3.23381e-09
4.66559e-10
3.01055e-09
4.33532e-10
2.77298e-09
4.30183e-10
2.5372e-09
4.35333e-10
2.32628e-09
4.15212e-10
2.15129e-09
3.63683e-10
2.01036e-09
2.99265e-10
1.89198e-09
2.48077e-10
1.77873e-09
2.26328e-10
1.6549e-09
2.37737e-10
1.50965e-09
2.75719e-10
1.34303e-09
3.22341e-10
1.16297e-09
3.61372e-10
9.84233e-10
3.78896e-10
8.20589e-10
3.72408e-10
6.80964e-10
3.46164e-10
5.72834e-10
3.01831e-10
4.95589e-10
2.43218e-10
4.53125e-10
1.66379e-10
4.43569e-10
7.35062e-11
4.64431e-10
-2.94281e-11
5.13514e-10
-1.36887e-10
5.87451e-10
-2.34601e-10
6.86878e-10
-3.17872e-10
8.11378e-10
-3.80358e-10
9.61133e-10
-4.23238e-10
1.13059e-09
-4.44916e-10
1.31081e-09
-4.46362e-10
1.48713e-09
-4.23904e-10
1.6416e-09
-3.72169e-10
1.75936e-09
-2.91557e-10
1.83758e-09
-1.95732e-10
1.88324e-09
-1.05025e-10
1.91759e-09
-4.65111e-11
1.95388e-09
-2.63595e-11
1.99767e-09
-3.81175e-11
2.05467e-09
-7.69135e-11
2.12942e-09
-1.40406e-10
2.22909e-09
-2.28823e-10
2.36218e-09
-3.26336e-10
2.51731e-09
-3.87393e-10
2.65991e-09
-3.54823e-10
2.75797e-09
-2.24014e-10
2.81464e-09
-7.7674e-11
2.86702e-09
-2.90839e-11
2.95477e-09
-1.26904e-10
3.04422e-09
-2.58923e-10
3.05519e-09
-2.2595e-10
2.93863e-09
3.73053e-11
2.74693e-09
3.51579e-10
2.63399e-09
4.33483e-10
2.6684e-09
2.15405e-10
2.6876e-09
1.19981e-11
2.56261e-09
1.10211e-10
2.2958e-09
4.29884e-10
2.14132e-09
4.99594e-10
2.2198e-09
1.63139e-10
2.28265e-09
-1.34872e-10
2.13408e-09
-1.49533e-11
2.01008e-09
1.39027e-10
2.11374e-09
-7.01524e-11
2.18663e-09
-3.051e-10
1.97827e-09
-1.63359e-10
1.80394e-09
1.18495e-10
1.72534e-09
2.49723e-10
1.59383e-09
2.16349e-10
1.50181e-09
3.872e-10
1.59457e-09
1.84369e-10
1.12786e-09
-1.26589e-06
-1.30469e-07
-1.42252e-06
3.31689e-07
-1.55198e-06
3.35105e-07
-1.69863e-06
3.56056e-07
-1.83869e-06
3.91499e-07
-1.97209e-06
4.13731e-07
-2.10925e-06
4.27734e-07
-2.25607e-06
4.49088e-07
-2.41122e-06
4.69589e-07
-2.57629e-06
4.8855e-07
-2.75211e-06
5.12492e-07
-2.93549e-06
5.35633e-07
-3.12637e-06
5.58019e-07
-3.31426e-06
5.78632e-07
-3.51064e-06
5.94953e-07
-3.71315e-06
6.081e-07
-3.91649e-06
6.1543e-07
-4.12319e-06
6.22523e-07
-4.33285e-06
6.31881e-07
-4.54392e-06
6.4064e-07
-4.75364e-06
6.45811e-07
-4.95997e-06
6.47489e-07
-5.16676e-06
6.47469e-07
-5.37647e-06
6.44581e-07
-5.58649e-06
6.41573e-07
-5.78914e-06
6.36656e-07
-5.98841e-06
6.32087e-07
-6.1886e-06
6.34632e-07
-6.39083e-06
6.31505e-07
-6.58832e-06
6.26773e-07
-6.78696e-06
6.41951e-07
-6.98804e-06
6.43433e-07
-7.19054e-06
6.17637e-07
-7.3827e-06
5.59874e-07
-7.55893e-06
5.43985e-07
-7.72854e-06
5.53105e-07
-7.89815e-06
5.49265e-07
-8.07107e-06
5.32818e-07
-8.22991e-06
4.93279e-07
-8.37166e-06
4.61975e-07
-8.50638e-06
4.60263e-07
-8.63484e-06
4.50481e-07
-8.76889e-06
4.19171e-07
-8.90174e-06
3.89452e-07
-9.02134e-06
3.71732e-07
-9.12671e-06
3.63547e-07
-9.23686e-06
3.42488e-07
-9.35044e-06
3.19129e-07
-9.45514e-06
2.96546e-07
-9.54414e-06
2.75537e-07
-9.62473e-06
2.4681e-07
-9.70216e-06
2.12821e-07
-9.76956e-06
1.79888e-07
-9.82463e-06
1.45098e-07
-9.86894e-06
1.21689e-07
-9.9004e-06
9.81811e-08
-9.92145e-06
7.01366e-08
-9.93786e-06
4.91188e-08
-9.94682e-06
3.61393e-08
-9.94734e-06
1.76006e-08
-9.94109e-06
-8.2989e-09
-9.92917e-06
-3.55327e-08
-9.91119e-06
-5.39459e-08
-9.88273e-06
-7.51739e-08
-9.84453e-06
-1.08957e-07
-9.79607e-06
-1.5341e-07
-9.73568e-06
-1.95254e-07
-9.66243e-06
-2.39731e-07
-9.57776e-06
-2.84916e-07
-9.47968e-06
-3.34797e-07
-9.37107e-06
-3.86823e-07
-9.25368e-06
-4.50581e-07
-9.12997e-06
-5.26177e-07
-9.00683e-06
-6.17076e-07
-8.88924e-06
-7.3023e-07
-8.79526e-06
-8.56235e-07
-8.78232e-06
-9.88125e-07
-8.88636e-06
-1.11171e-06
-8.96662e-06