/*--------------------------------*- C++ -*----------------------------------*\
| =========                 |                                                 |
| \\      /  F ield         | OpenFOAM: The Open Source CFD Toolbox           |
|  \\    /   O peration     | Version:  v2006                                 |
|   \\  /    A nd           | Website:  www.openfoam.com                      |
|    \\/     M anipulation  |                                                 |
\*---------------------------------------------------------------------------*/
FoamFile
{
    version     2.0;
    format      ascii;
    class       volVectorField;
    location    "1.2";
    object      U;
}
// * * * * * * * * * * * * * * * * * * * * * * * * * * * * * * * * * * * * * //

dimensions      [0 1 -1 0 0 0 0];


internalField   nonuniform List<vector> 
33000
(
(-0.00889358 0 -0.000389122)
(-0.00346989 0 0.000215735)
(-0.00309533 0 0.000251161)
(-0.00373332 0 0.000190744)
(-0.00393126 0 0.000263671)
(-0.00430306 0 0.000315889)
(-0.00466426 0 0.000315466)
(-0.00504973 0 0.000319207)
(-0.00544291 0 0.000322639)
(-0.00584664 0 0.000319861)
(-0.00625671 0 0.000327262)
(-0.00667999 0 0.000340829)
(-0.00711983 0 0.000354957)
(-0.00759246 0 0.000392912)
(-0.0080873 0 0.000395331)
(-0.00858549 0 0.000398031)
(-0.00908868 0 0.000404164)
(-0.00959724 0 0.000409443)
(-0.0101119 0 0.000413216)
(-0.0106354 0 0.000423002)
(-0.0111716 0 0.000434985)
(-0.0117189 0 0.000441411)
(-0.0122695 0 0.000438051)
(-0.012806 0 0.000424996)
(-0.0133325 0 0.000422693)
(-0.0138634 0 0.000432221)
(-0.0144007 0 0.000432758)
(-0.0149345 0 0.000425699)
(-0.0154579 0 0.000416128)
(-0.0159813 0 0.000420463)
(-0.0165065 0 0.000421716)
(-0.0170268 0 0.00041085)
(-0.0175205 0 0.000384761)
(-0.0179858 0 0.000371939)
(-0.0184524 0 0.000381608)
(-0.0189278 0 0.000375455)
(-0.0193839 0 0.000354612)
(-0.0198046 0 0.000318081)
(-0.0202038 0 0.00032102)
(-0.0206105 0 0.000331903)
(-0.0210226 0 0.000327706)
(-0.0214304 0 0.000316995)
(-0.0217997 0 0.000274247)
(-0.0221181 0 0.000244471)
(-0.0224274 0 0.000250723)
(-0.0227473 0 0.000260754)
(-0.023047 0 0.000218015)
(-0.0232906 0 0.000176699)
(-0.023507 0 0.00016634)
(-0.0237189 0 0.000171211)
(-0.0239221 0 0.000151791)
(-0.0240834 0 0.00011182)
(-0.0242109 0 8.42802e-05)
(-0.0243064 0 6.30483e-05)
(-0.0243857 0 6.02822e-05)
(-0.0244586 0 5.30634e-05)
(-0.0245146 0 3.79041e-05)
(-0.0245517 0 2.45082e-05)
(-0.0245812 0 2.40436e-05)
(-0.0246052 0 1.52979e-05)
(-0.0246096 0 -6.15968e-06)
(-0.0245877 0 -2.73605e-05)
(-0.0245461 0 -3.88399e-05)
(-0.0244882 0 -5.3598e-05)
(-0.0244056 0 -7.69979e-05)
(-0.0242894 0 -0.000106229)
(-0.0241351 0 -0.000137915)
(-0.0239396 0 -0.000171295)
(-0.0237013 0 -0.000206899)
(-0.0234149 0 -0.000248862)
(-0.0230689 0 -0.000303882)
(-0.0226455 0 -0.000377594)
(-0.0221186 0 -0.000482701)
(-0.021443 0 -0.000656314)
(-0.0205275 0 -0.00093183)
(-0.0191553 0 -0.00137482)
(-0.017353 0 -0.00217225)
(-0.0161492 0 -0.00323786)
(-0.0108131 0 -0.00170483)
(-0.0102778 0 0.000140554)
(-0.0092128 0 0.000749545)
(-0.00940346 0 0.00110755)
(-0.00943321 0 5.02654e-05)
(-0.00945771 0 -0.000120315)
(-0.00974604 0 -0.000189975)
(-0.00980477 0 -9.48946e-05)
(-0.00965322 0 -2.02197e-05)
(-0.0096203 0 8.88018e-05)
(-0.00960979 0 0.000120829)
(-0.00961387 0 3.24386e-05)
(-0.00959871 0 5.80903e-06)
(-0.00960212 0 -1.99655e-05)
(-0.00957011 0 -3.64417e-05)
(-0.00951353 0 -4.1757e-05)
(-0.00945208 0 -5.93214e-05)
(-0.00936155 0 -8.67934e-05)
(-0.00925032 0 -0.000125681)
(-0.00904301 0 -0.000172567)
(-0.00902176 0 -0.00028568)
(-0.00838048 0 -0.000229635)
(-0.00840503 0 -7.71876e-05)
(-0.00824914 0 4.57923e-05)
(-0.00823786 0 5.67296e-05)
(-0.0081873 0 -3.67632e-05)
(-0.0081266 0 -4.94916e-05)
(-0.00808222 0 -5.43926e-05)
(-0.00801661 0 -5.93051e-05)
(-0.00793564 0 -5.9974e-05)
(-0.00785622 0 -5.86879e-05)
(-0.00777715 0 -6.1029e-05)
(-0.00769347 0 -6.76132e-05)
(-0.00760396 0 -7.33047e-05)
(-0.00750676 0 -8.17772e-05)
(-0.00739884 0 -9.54199e-05)
(-0.00727859 0 -0.000114905)
(-0.00709825 0 -0.000145932)
(-0.0070605 0 -0.000222758)
(-0.00654537 0 -0.000187373)
(-0.00653928 0 -8.51158e-05)
(-0.00639849 0 -3.63647e-07)
(-0.00635512 0 6.87928e-06)
(-0.00629167 0 -4.98106e-05)
(-0.00621747 0 -5.60215e-05)
(-0.00615482 0 -5.65634e-05)
(-0.00608298 0 -5.98616e-05)
(-0.00600402 0 -5.88972e-05)
(-0.00592689 0 -5.99653e-05)
(-0.00584819 0 -6.22387e-05)
(-0.00576706 0 -6.34696e-05)
(-0.00568535 0 -6.42936e-05)
(-0.00560264 0 -6.54537e-05)
(-0.00551897 0 -6.60962e-05)
(-0.00543475 0 -6.67535e-05)
(-0.00535006 0 -6.71092e-05)
(-0.00526486 0 -6.74599e-05)
(-0.00517922 0 -6.7692e-05)
(-0.00509327 0 -6.77837e-05)
(-0.00500719 0 -6.779e-05)
(-0.00492097 0 -6.78275e-05)
(-0.00483462 0 -6.7794e-05)
(-0.00474814 0 -6.78264e-05)
(-0.00466148 0 -6.78116e-05)
(-0.00457478 0 -6.77133e-05)
(-0.00448813 0 -6.7575e-05)
(-0.0044015 0 -6.74783e-05)
(-0.00431491 0 -6.73545e-05)
(-0.00422846 0 -6.71356e-05)
(-0.00414229 0 -6.68126e-05)
(-0.00405644 0 -6.65262e-05)
(-0.00397093 0 -6.61741e-05)
(-0.00388588 0 -6.57903e-05)
(-0.00380133 0 -6.53735e-05)
(-0.00371735 0 -6.48882e-05)
(-0.00363403 0 -6.43518e-05)
(-0.00355145 0 -6.37369e-05)
(-0.00346964 0 -6.31281e-05)
(-0.00338861 0 -6.24926e-05)
(-0.00330842 0 -6.18339e-05)
(-0.00322908 0 -6.1179e-05)
(-0.00315061 0 -6.04764e-05)
(-0.00307308 0 -5.97337e-05)
(-0.00299651 0 -5.902e-05)
(-0.00292085 0 -5.83494e-05)
(-0.0028461 0 -5.76378e-05)
(-0.0027723 0 -5.68677e-05)
(-0.0026995 0 -5.60973e-05)
(-0.00262764 0 -5.53749e-05)
(-0.00255672 0 -5.46474e-05)
(-0.00248676 0 -5.38919e-05)
(-0.0024178 0 -5.31024e-05)
(-0.00234985 0 -5.23579e-05)
(-0.00228285 0 -5.16442e-05)
(-0.00221681 0 -5.08854e-05)
(-0.00215178 0 -5.00868e-05)
(-0.00208778 0 -4.93134e-05)
(-0.00202475 0 -4.85522e-05)
(-0.00196272 0 -4.77498e-05)
(-0.00190173 0 -4.69231e-05)
(-0.00184179 0 -4.61212e-05)
(-0.00178286 0 -4.53235e-05)
(-0.00172497 0 -4.44993e-05)
(-0.00166816 0 -4.36666e-05)
(-0.0016124 0 -4.28611e-05)
(-0.00155768 0 -4.20693e-05)
(-0.00150399 0 -4.12596e-05)
(-0.00145137 0 -4.04375e-05)
(-0.00139981 0 -3.9624e-05)
(-0.00134928 0 -3.8812e-05)
(-0.00129979 0 -3.79883e-05)
(-0.00125137 0 -3.7157e-05)
(-0.00120402 0 -3.63345e-05)
(-0.00115773 0 -3.55295e-05)
(-0.00111248 0 -3.47337e-05)
(-0.00106827 0 -3.39331e-05)
(-0.00102511 0 -3.31206e-05)
(-0.000982991 0 -3.23027e-05)
(-0.000941904 0 -3.1486e-05)
(-0.000901848 0 -3.06728e-05)
(-0.000862823 0 -2.98659e-05)
(-0.000824824 0 -2.90686e-05)
(-0.00078784 0 -2.82798e-05)
(-0.000751863 0 -2.75004e-05)
(-0.000716878 0 -2.67314e-05)
(-0.000682874 0 -2.59676e-05)
(-0.000649839 0 -2.52064e-05)
(-0.000617766 0 -2.44581e-05)
(-0.000586631 0 -2.37333e-05)
(-0.000556412 0 -2.30319e-05)
(-0.000527093 0 -2.23587e-05)
(-0.000498644 0 -2.1719e-05)
(-0.000471037 0 -2.10915e-05)
(-0.000444272 0 -2.04416e-05)
(-0.000418375 0 -1.9769e-05)
(-0.000393349 0 -1.90947e-05)
(-0.000369172 0 -1.84253e-05)
(-0.000345835 0 -1.77442e-05)
(-0.000323343 0 -1.70656e-05)
(-0.000301674 0 -1.6426e-05)
(-0.000280778 0 -1.5834e-05)
(-0.000260621 0 -1.52632e-05)
(-0.000241201 0 -1.46986e-05)
(-0.000222511 0 -1.41539e-05)
(-0.000204522 0 -1.36313e-05)
(-0.000187211 0 -1.31067e-05)
(-0.000170585 0 -1.25691e-05)
(-0.000154643 0 -1.20364e-05)
(-0.000139357 0 -1.15348e-05)
(-0.00012469 0 -1.10621e-05)
(-0.000110619 0 -1.06083e-05)
(-9.71299e-05 0 -1.01732e-05)
(-8.41977e-05 0 -9.76076e-06)
(-7.17925e-05 0 -9.36236e-06)
(-5.98982e-05 0 -8.9685e-06)
(-4.85064e-05 0 -8.57883e-06)
(-3.76081e-05 0 -8.19179e-06)
(-2.72013e-05 0 -7.80344e-06)
(-1.72929e-05 0 -7.4144e-06)
(-7.88085e-06 0 -7.03952e-06)
(1.05874e-06 0 -6.69534e-06)
(9.56563e-06 0 -6.38174e-06)
(1.76759e-05 0 -6.08485e-06)
(2.54132e-05 0 -5.79254e-06)
(3.27952e-05 0 -5.49963e-06)
(3.98292e-05 0 -5.20736e-06)
(4.65179e-05 0 -4.9193e-06)
(5.28631e-05 0 -4.64796e-06)
(5.88711e-05 0 -4.3978e-06)
(6.45552e-05 0 -4.15983e-06)
(6.99188e-05 0 -3.91763e-06)
(7.49551e-05 0 -3.66912e-06)
(7.96664e-05 0 -3.43538e-06)
(8.40847e-05 0 -3.23533e-06)
(8.82568e-05 0 -3.06409e-06)
(9.22097e-05 0 -2.89428e-06)
(9.59424e-05 0 -2.71168e-06)
(9.94482e-05 0 -2.53406e-06)
(0.000102746 0 -2.38864e-06)
(0.000105872 0 -2.27692e-06)
(0.00010885 0 -2.17237e-06)
(0.000111667 0 -2.04939e-06)
(0.000114299 0 -1.9036e-06)
(0.000116737 0 -1.74864e-06)
(0.000118983 0 -1.59233e-06)
(0.000121041 0 -1.43714e-06)
(0.000122916 0 -1.28838e-06)
(0.000124616 0 -1.15143e-06)
(0.000126154 0 -1.02358e-06)
(0.000127538 0 -9.001e-07)
(0.000128774 0 -7.85159e-07)
(0.000129878 0 -6.92351e-07)
(0.000130872 0 -6.20964e-07)
(0.000131769 0 -5.55656e-07)
(0.000132566 0 -4.85651e-07)
(0.000133256 0 -4.1123e-07)
(0.000133841 0 -3.35107e-07)
(0.00013432 0 -2.55734e-07)
(0.000134689 0 -1.70953e-07)
(0.000134941 0 -8.08125e-08)
(0.000135074 0 1.62623e-08)
(0.000135082 0 1.22293e-07)
(0.000134962 0 2.31255e-07)
(0.000134718 0 3.26751e-07)
(0.00013437 0 3.94267e-07)
(0.000133952 0 4.33733e-07)
(0.000133488 0 4.54586e-07)
(0.000132995 0 4.64427e-07)
(0.000132484 0 4.64819e-07)
(0.000131968 0 4.55149e-07)
(0.000131459 0 4.389e-07)
(0.000130963 0 4.23448e-07)
(0.000130474 0 4.16858e-07)
(0.000129981 0 4.21949e-07)
(0.000129472 0 4.3823e-07)
(0.000128931 0 4.7172e-07)
(0.000128338 0 5.24691e-07)
(0.000127676 0 5.91868e-07)
(0.000126937 0 6.62632e-07)
(0.00012612 0 7.27273e-07)
(0.000125235 0 7.82323e-07)
(0.00012429 0 8.29657e-07)
(0.000123291 0 8.71161e-07)
(0.000122246 0 9.04797e-07)
(0.000121167 0 9.25765e-07)
(0.00012007 0 9.30526e-07)
(0.000118973 0 9.18257e-07)
(0.000117893 0 8.93326e-07)
(0.000116838 0 8.62357e-07)
(0.000115812 0 8.31132e-07)
(0.000114813 0 8.03554e-07)
(0.000113836 0 7.82335e-07)
(0.000112873 0 7.69532e-07)
(0.000111918 0 7.65461e-07)
(0.000110961 0 7.69654e-07)
(0.000109996 0 7.79282e-07)
(0.000109021 0 7.90171e-07)
(0.000108036 0 7.98301e-07)
(0.000107046 0 8.01024e-07)
(0.000106057 0 7.97749e-07)
(0.000105079 0 7.89776e-07)
(0.000104114 0 7.7919e-07)
(0.000103167 0 7.66483e-07)
(0.000102236 0 7.49825e-07)
(0.000101321 0 7.27383e-07)
(0.000100425 0 7.02245e-07)
(9.95464e-05 0 6.84251e-07)
(9.86753e-05 0 6.86354e-07)
(9.77904e-05 0 7.1317e-07)
(9.6869e-05 0 7.52973e-07)
(9.59037e-05 0 7.87305e-07)
(9.49059e-05 0 8.06368e-07)
(9.38947e-05 0 8.15661e-07)
(9.28806e-05 0 8.22561e-07)
(9.1867e-05 0 8.2165e-07)
(9.08648e-05 0 7.99088e-07)
(8.98976e-05 0 7.52568e-07)
(8.89851e-05 0 7.00581e-07)
(8.81213e-05 0 6.68316e-07)
(8.72761e-05 0 6.61042e-07)
(8.64255e-05 0 6.63262e-07)
(8.55657e-05 0 6.66999e-07)
(8.4696e-05 0 6.81061e-07)
(8.38038e-05 0 7.13911e-07)
(8.28713e-05 0 7.56493e-07)
(8.1897e-05 0 7.88846e-07)
(8.08992e-05 0 8.02279e-07)
(7.98966e-05 0 8.03763e-07)
(7.88967e-05 0 7.99084e-07)
(7.79052e-05 0 7.8452e-07)
(7.69338e-05 0 7.59625e-07)
(7.59883e-05 0 7.35072e-07)
(7.50602e-05 0 7.2142e-07)
(7.41354e-05 0 7.20212e-07)
(7.3204e-05 0 7.3076e-07)
(7.22546e-05 0 7.54868e-07)
(7.12731e-05 0 7.88569e-07)
(7.02552e-05 0 8.18539e-07)
(6.92147e-05 0 8.33779e-07)
(6.8172e-05 0 8.35165e-07)
(6.71394e-05 0 8.27099e-07)
(6.61231e-05 0 8.08544e-07)
(6.51308e-05 0 7.78921e-07)
(6.41682e-05 0 7.48198e-07)
(6.32282e-05 0 7.31782e-07)
(6.22905e-05 0 7.3676e-07)
(6.13355e-05 0 7.56734e-07)
(6.03547e-05 0 7.80701e-07)
(5.935e-05 0 8.01981e-07)
(5.83283e-05 0 8.17444e-07)
(5.72995e-05 0 8.22148e-07)
(5.62782e-05 0 8.10437e-07)
(5.52819e-05 0 7.82756e-07)
(5.43214e-05 0 7.48811e-07)
(5.3395e-05 0 7.21069e-07)
(5.24905e-05 0 7.05688e-07)
(5.15948e-05 0 6.99781e-07)
(5.07021e-05 0 6.97391e-07)
(4.9813e-05 0 6.97038e-07)
(4.89269e-05 0 6.99718e-07)
(4.80421e-05 0 6.99754e-07)
(4.71671e-05 0 6.85674e-07)
(4.63207e-05 0 6.53164e-07)
(4.55175e-05 0 6.11698e-07)
(4.47536e-05 0 5.77538e-07)
(4.40108e-05 0 5.61661e-07)
(4.32677e-05 0 5.68e-07)
(4.25068e-05 0 5.91364e-07)
(4.17213e-05 0 6.17481e-07)
(4.09205e-05 0 6.3181e-07)
(4.01229e-05 0 6.289e-07)
(3.93444e-05 0 6.10859e-07)
(3.85938e-05 0 5.84071e-07)
(3.78705e-05 0 5.59625e-07)
(3.71615e-05 0 5.49202e-07)
(3.6446e-05 0 5.57681e-07)
(3.57072e-05 0 5.81674e-07)
(3.49368e-05 0 6.13843e-07)
(3.41369e-05 0 6.42557e-07)
(3.33223e-05 0 6.52241e-07)
(3.25191e-05 0 6.32779e-07)
(3.17526e-05 0 5.93045e-07)
(3.10296e-05 0 5.55591e-07)
(3.03339e-05 0 5.36716e-07)
(2.96418e-05 0 5.35151e-07)
(2.89461e-05 0 5.39878e-07)
(2.82506e-05 0 5.49363e-07)
(2.75517e-05 0 5.55734e-07)
(2.68594e-05 0 5.40105e-07)
(2.61959e-05 0 5.0753e-07)
(2.55618e-05 0 4.82935e-07)
(2.4939e-05 0 4.7966e-07)
(2.43101e-05 0 4.92324e-07)
(2.3668e-05 0 5.06863e-07)
(2.30235e-05 0 5.0652e-07)
(2.23994e-05 0 4.88436e-07)
(2.18052e-05 0 4.65785e-07)
(2.1231e-05 0 4.4396e-07)
(2.06774e-05 0 4.25956e-07)
(2.01349e-05 0 4.23248e-07)
(1.95927e-05 0 4.24266e-07)
(1.90547e-05 0 4.1101e-07)
(1.85427e-05 0 3.95343e-07)
(1.80379e-05 0 4.08423e-07)
(1.75038e-05 0 4.28202e-07)
(1.69567e-05 0 4.30971e-07)
(1.63824e-05 0 4.50382e-07)
(1.58469e-05 0 4.2695e-07)
(1.53815e-05 0 4.63653e-07)
(1.48893e-05 0 4.12617e-07)
(1.45474e-05 0 2.89309e-07)
(1.40719e-05 0 1.85197e-07)
(1.4046e-05 0 1.55626e-07)
(1.36242e-05 0 1.96721e-07)
(1.34437e-05 0 1.42461e-07)
(1.32319e-05 0 1.34172e-07)
(1.30325e-05 0 1.46506e-07)
(1.28122e-05 0 1.95557e-07)
(1.25141e-05 0 2.22687e-07)
(1.22626e-05 0 2.02033e-07)
(1.19931e-05 0 2.0722e-07)
(1.17649e-05 0 1.22809e-07)
(1.16288e-05 0 1.64895e-07)
(1.1313e-05 0 2.54808e-07)
(1.09875e-05 0 2.50843e-07)
(1.06737e-05 0 2.42816e-07)
(1.0418e-05 0 2.04267e-07)
(1.02118e-05 0 2.2931e-07)
(9.93467e-06 0 1.88437e-07)
(9.76223e-06 0 1.04905e-07)
(9.67304e-06 0 4.30796e-08)
(9.66607e-06 0 -5.65881e-08)
(9.60442e-06 0 3.9172e-08)
(9.52228e-06 0 2.94099e-09)
(9.50277e-06 0 1.03627e-07)
(9.31047e-06 0 1.14438e-07)
(9.17849e-06 0 2.31403e-07)
(8.88274e-06 0 1.45038e-07)
(8.90069e-06 0 -2.57979e-08)
(8.80719e-06 0 1.81612e-07)
(8.58389e-06 0 -2.07152e-09)
(8.73757e-06 0 -6.4278e-08)
(8.60734e-06 0 1.61985e-07)
(8.54627e-06 0 6.70508e-08)
(8.17697e-06 0 1.69124e-08)
(7.89022e-06 0 5.44647e-08)
(7.79465e-06 0 3.76407e-07)
(7.29968e-06 0 8.81375e-07)
(7.22924e-06 0 3.29601e-07)
(8.05742e-06 0 1.71428e-07)
(7.04315e-06 0 -1.08528e-06)
(1.23017e-05 0 -1.9767e-06)
(1.12556e-05 0 -4.37066e-07)
(1.18135e-05 0 -3.32396e-07)
(1.19755e-05 0 -2.30319e-08)
(1.18608e-05 0 1.1725e-07)
(1.16382e-05 0 1.77639e-07)
(1.13091e-05 0 2.68125e-07)
(1.08361e-05 0 4.11374e-07)
(1.02379e-05 0 5.27303e-07)
(9.5657e-06 0 5.79744e-07)
(8.84387e-06 0 6.01565e-07)
(8.10057e-06 0 5.8324e-07)
(7.4127e-06 0 5.03598e-07)
(6.82806e-06 0 4.05942e-07)
(6.31261e-06 0 3.62684e-07)
(5.80741e-06 0 3.77279e-07)
(5.28587e-06 0 3.95822e-07)
(4.77414e-06 0 3.75649e-07)
(4.31862e-06 0 3.20365e-07)
(3.94747e-06 0 2.62174e-07)
(3.63607e-06 0 2.25125e-07)
(3.33837e-06 0 2.2235e-07)
(3.02033e-06 0 2.51801e-07)
(2.64841e-06 0 3.00861e-07)
(2.2108e-06 0 3.5623e-07)
(1.71957e-06 0 4.00853e-07)
(1.19313e-06 0 4.27225e-07)
(6.58158e-07 0 4.33952e-07)
(1.43032e-07 0 4.2011e-07)
(-3.20911e-07 0 3.73873e-07)
(-6.9839e-07 0 2.94548e-07)
(-9.50032e-07 0 1.7043e-07)
(-1.02517e-06 0 1.08959e-08)
(-9.19947e-07 0 -1.69156e-07)
(-6.29184e-07 0 -3.32849e-07)
(-1.64934e-07 0 -4.61356e-07)
(4.11193e-07 0 -5.41001e-07)
(1.05718e-06 0 -5.72136e-07)
(1.72999e-06 0 -5.6709e-07)
(2.39496e-06 0 -5.38838e-07)
(3.02653e-06 0 -4.95259e-07)
(3.5983e-06 0 -4.31975e-07)
(4.08352e-06 0 -3.4399e-07)
(4.44065e-06 0 -2.28937e-07)
(4.64346e-06 0 -1.04846e-07)
(4.70981e-06 0 7.54853e-10)
(4.69221e-06 0 6.48499e-08)
(4.655e-06 0 6.58781e-08)
(4.6515e-06 0 4.02848e-09)
(4.73932e-06 0 -1.05467e-07)
(4.9722e-06 0 -2.44626e-07)
(5.36971e-06 0 -3.86411e-07)
(5.89684e-06 0 -4.73291e-07)
(6.44401e-06 0 -4.33275e-07)
(6.8655e-06 0 -2.44848e-07)
(7.02899e-06 0 -1.14244e-08)
(6.99832e-06 0 1.19393e-07)
(6.99522e-06 0 -1.37058e-08)
(7.24844e-06 0 -3.35213e-07)
(7.7375e-06 0 -5.04782e-07)
(8.11542e-06 0 -2.86901e-07)
(8.01375e-06 0 2.96972e-07)
(7.35332e-06 0 7.39722e-07)
(6.57641e-06 0 6.89011e-07)
(6.21926e-06 0 1.80985e-07)
(6.24272e-06 0 -9.17136e-08)
(6.08407e-06 0 2.54745e-07)
(5.39685e-06 0 7.72151e-07)
(4.53381e-06 0 6.91812e-07)
(4.30123e-06 0 -7.13222e-08)
(4.71371e-06 0 -4.4717e-07)
(4.90702e-06 0 -7.75597e-08)
(4.72324e-06 0 1.80377e-07)
(4.92711e-06 0 -4.84045e-07)
(5.792e-06 0 -1.06396e-06)
(6.36946e-06 0 -3.29348e-07)
(6.12301e-06 0 3.88973e-07)
(5.79675e-06 0 1.50957e-07)
(5.33187e-06 0 6.68997e-07)
(4.82562e-06 0 7.96388e-07)
(2.37781e-06 0 1.18691e-06)
(-0.00932062 0 -0.000564645)
(-0.00399617 0 0.000515646)
(-0.00344587 0 0.000619164)
(-0.00407881 0 0.000562786)
(-0.0043104 0 0.000726997)
(-0.00466309 0 0.000846668)
(-0.00498904 0 0.000879483)
(-0.0053457 0 0.000915748)
(-0.00571664 0 0.00094579)
(-0.00610661 0 0.000961405)
(-0.00651535 0 0.000994546)
(-0.00694525 0 0.00103905)
(-0.00739541 0 0.0010829)
(-0.00786134 0 0.00116763)
(-0.00834148 0 0.00118418)
(-0.00883548 0 0.00120086)
(-0.00934015 0 0.00121889)
(-0.00984986 0 0.00123041)
(-0.0103653 0 0.0012468)
(-0.0108877 0 0.00127054)
(-0.0114125 0 0.00129497)
(-0.0119385 0 0.00131067)
(-0.0124669 0 0.00130501)
(-0.0129965 0 0.00127899)
(-0.0135236 0 0.00126903)
(-0.0140428 0 0.00128176)
(-0.0145544 0 0.00127808)
(-0.0150682 0 0.0012738)
(-0.0155853 0 0.00125442)
(-0.0160968 0 0.00125914)
(-0.016623 0 0.00129003)
(-0.0171708 0 0.00127784)
(-0.0177064 0 0.00118741)
(-0.0181686 0 0.00108148)
(-0.0185788 0 0.00109359)
(-0.0190059 0 0.00111769)
(-0.019461 0 0.00108684)
(-0.0199213 0 0.00101004)
(-0.0203458 0 0.000960572)
(-0.0207154 0 0.00094584)
(-0.0210744 0 0.000954923)
(-0.0214427 0 0.000936404)
(-0.0218008 0 0.000819018)
(-0.0221177 0 0.000737119)
(-0.0224108 0 0.000736393)
(-0.0227005 0 0.000757109)
(-0.0229821 0 0.000662051)
(-0.0232491 0 0.000563853)
(-0.0234987 0 0.000532341)
(-0.0237305 0 0.000526784)
(-0.0239399 0 0.000465932)
(-0.0241212 0 0.000363627)
(-0.024278 0 0.000293465)
(-0.0244073 0 0.000227658)
(-0.0245094 0 0.000200751)
(-0.0245926 0 0.000172288)
(-0.0246572 0 0.000124028)
(-0.0246997 0 7.94677e-05)
(-0.0247262 0 6.88718e-05)
(-0.0247405 0 4.0677e-05)
(-0.0247384 0 -1.80169e-05)
(-0.0247138 0 -8.07905e-05)
(-0.0246698 0 -0.000115263)
(-0.0246156 0 -0.000150572)
(-0.0245428 0 -0.000221456)
(-0.0244316 0 -0.000317314)
(-0.0242803 0 -0.000407112)
(-0.0240939 0 -0.000502664)
(-0.0238697 0 -0.000604537)
(-0.0236066 0 -0.000718213)
(-0.0233059 0 -0.000855598)
(-0.0229619 0 -0.00103861)
(-0.0225663 0 -0.00128096)
(-0.0221221 0 -0.00163446)
(-0.0216424 0 -0.00214041)
(-0.0211687 0 -0.00287089)
(-0.0208779 0 -0.00415825)
(-0.0209113 0 -0.00561925)
(-0.0203723 0 -0.00589598)
(-0.0190459 0 -0.0031462)
(-0.0178403 0 -0.00243488)
(-0.0119556 0 -0.000988354)
(-0.0111818 0 -2.10523e-05)
(-0.00981609 0 0.000644012)
(-0.00968077 0 0.00097585)
(-0.00948925 0 -7.06126e-05)
(-0.00940364 0 -0.000198072)
(-0.00946564 0 -0.000247473)
(-0.00972055 0 -0.000141955)
(-0.00979501 0 -9.21384e-05)
(-0.0096601 0 -1.5719e-05)
(-0.00964449 0 -1.35118e-06)
(-0.00959052 0 -9.75282e-05)
(-0.00953592 0 -0.000125364)
(-0.00950331 0 -0.000163252)
(-0.0094399 0 -0.000220174)
(-0.00936829 0 -0.00027626)
(-0.00929551 0 -0.00035691)
(-0.00925415 0 -0.000500538)
(-0.0092316 0 -0.000499749)
(-0.00906398 0 -0.000370618)
(-0.00902091 0 -0.000322179)
(-0.00835632 0 -0.000234295)
(-0.00834434 0 -0.000180002)
(-0.00815861 0 -7.65571e-05)
(-0.00810177 0 -7.59781e-05)
(-0.00802581 0 -0.000169763)
(-0.00793556 0 -0.000186436)
(-0.00785952 0 -0.00019196)
(-0.00779266 0 -0.000191653)
(-0.00771413 0 -0.000203224)
(-0.00762504 0 -0.00021195)
(-0.0075368 0 -0.000229369)
(-0.0074449 0 -0.000256775)
(-0.00735238 0 -0.000289607)
(-0.00725766 0 -0.00033699)
(-0.00718981 0 -0.000435836)
(-0.00713685 0 -0.000432514)
(-0.00699038 0 -0.000340596)
(-0.00693388 0 -0.00030465)
(-0.00641223 0 -0.000238139)
(-0.0063779 0 -0.000199426)
(-0.00622272 0 -0.000126011)
(-0.00615519 0 -0.000121314)
(-0.00608081 0 -0.000176154)
(-0.00599945 0 -0.000181142)
(-0.00592742 0 -0.000181621)
(-0.00584913 0 -0.000188099)
(-0.00576598 0 -0.000189509)
(-0.00568448 0 -0.000192272)
(-0.00560233 0 -0.0001959)
(-0.00551833 0 -0.000198118)
(-0.00543398 0 -0.000199563)
(-0.00534898 0 -0.000201098)
(-0.00526316 0 -0.000202162)
(-0.00517701 0 -0.000202891)
(-0.00509071 0 -0.000203058)
(-0.00500423 0 -0.000202957)
(-0.00491753 0 -0.000202898)
(-0.00483063 0 -0.000202665)
(-0.00474362 0 -0.000202568)
(-0.00465652 0 -0.000202301)
(-0.00456941 0 -0.000201847)
(-0.00448234 0 -0.000201275)
(-0.00439537 0 -0.000200813)
(-0.00430853 0 -0.000200279)
(-0.00422193 0 -0.000199486)
(-0.00413565 0 -0.000198463)
(-0.00404973 0 -0.000197546)
(-0.00396425 0 -0.000196436)
(-0.00387931 0 -0.000195188)
(-0.00379496 0 -0.000193894)
(-0.00371118 0 -0.000192453)
(-0.00362805 0 -0.000190852)
(-0.00354564 0 -0.000189078)
(-0.00346396 0 -0.000187326)
(-0.00338301 0 -0.0001855)
(-0.00330286 0 -0.000183576)
(-0.00322356 0 -0.000181632)
(-0.00314513 0 -0.0001796)
(-0.00306758 0 -0.000177486)
(-0.00299095 0 -0.000175359)
(-0.00291525 0 -0.000173269)
(-0.00284051 0 -0.000171135)
(-0.00276669 0 -0.000168937)
(-0.00269379 0 -0.000166725)
(-0.00262183 0 -0.000164572)
(-0.00255083 0 -0.000162404)
(-0.00248079 0 -0.000160181)
(-0.00241176 0 -0.000157864)
(-0.00234374 0 -0.000155599)
(-0.00227674 0 -0.000153389)
(-0.00221074 0 -0.000151103)
(-0.00214576 0 -0.000148744)
(-0.00208178 0 -0.000146427)
(-0.0020188 0 -0.000144141)
(-0.00195683 0 -0.000141789)
(-0.00189587 0 -0.000139391)
(-0.00183594 0 -0.000137035)
(-0.00177703 0 -0.000134692)
(-0.00171913 0 -0.000132291)
(-0.00166227 0 -0.000129851)
(-0.00160646 0 -0.000127441)
(-0.0015517 0 -0.000125041)
(-0.001498 0 -0.00012259)
(-0.00144539 0 -0.000120111)
(-0.00139385 0 -0.000117668)
(-0.00134338 0 -0.000115256)
(-0.00129395 0 -0.000112827)
(-0.00124559 0 -0.000110361)
(-0.00119831 0 -0.000107891)
(-0.00115211 0 -0.000105446)
(-0.00110699 0 -0.000103012)
(-0.00106295 0 -0.000100566)
(-0.00101997 0 -9.81154e-05)
(-0.000978028 0 -9.56916e-05)
(-0.000937107 0 -9.32943e-05)
(-0.000897197 0 -9.09024e-05)
(-0.000858311 0 -8.85204e-05)
(-0.000820443 0 -8.61683e-05)
(-0.000783575 0 -8.38451e-05)
(-0.000747695 0 -8.15438e-05)
(-0.000712794 0 -7.92665e-05)
(-0.000678859 0 -7.70079e-05)
(-0.00064588 0 -7.47632e-05)
(-0.000613852 0 -7.25511e-05)
(-0.000582771 0 -7.03904e-05)
(-0.000552637 0 -6.82776e-05)
(-0.000523445 0 -6.62216e-05)
(-0.000495183 0 -6.42413e-05)
(-0.000467818 0 -6.23089e-05)
(-0.000441319 0 -6.03573e-05)
(-0.000415662 0 -5.83719e-05)
(-0.00039083 0 -5.63971e-05)
(-0.000366802 0 -5.44476e-05)
(-0.000343561 0 -5.24936e-05)
(-0.00032111 0 -5.05514e-05)
(-0.000299452 0 -4.86849e-05)
(-0.000278579 0 -4.69139e-05)
(-0.000258482 0 -4.51892e-05)
(-0.000239157 0 -4.34812e-05)
(-0.000220591 0 -4.18201e-05)
(-0.000202751 0 -4.02207e-05)
(-0.000185597 0 -3.86471e-05)
(-0.000169097 0 -3.70784e-05)
(-0.000153228 0 -3.55495e-05)
(-0.00013797 0 -3.41001e-05)
(-0.000123306 0 -3.27158e-05)
(-0.000109237 0 -3.13646e-05)
(-9.57664e-05 0 -3.00457e-05)
(-8.28876e-05 0 -2.87755e-05)
(-7.05821e-05 0 -2.75481e-05)
(-5.88247e-05 0 -2.63509e-05)
(-4.75831e-05 0 -2.51871e-05)
(-3.68216e-05 0 -2.40591e-05)
(-2.65072e-05 0 -2.29538e-05)
(-1.66238e-05 0 -2.18622e-05)
(-7.16602e-06 0 -2.08017e-05)
(1.86837e-06 0 -1.97963e-05)
(1.04807e-05 0 -1.88431e-05)
(1.86743e-05 0 -1.7922e-05)
(2.64584e-05 0 -1.70205e-05)
(3.38485e-05 0 -1.61354e-05)
(4.08623e-05 0 -1.52663e-05)
(4.75063e-05 0 -1.44138e-05)
(5.37824e-05 0 -1.35996e-05)
(5.97038e-05 0 -1.28411e-05)
(6.52959e-05 0 -1.21343e-05)
(7.05916e-05 0 -1.14489e-05)
(7.56108e-05 0 -1.07649e-05)
(8.03592e-05 0 -1.01039e-05)
(8.48375e-05 0 -9.50143e-06)
(8.90576e-05 0 -8.95949e-06)
(9.304e-05 0 -8.43702e-06)
(9.67952e-05 0 -7.90396e-06)
(0.00010032 0 -7.38479e-06)
(0.000103613 0 -6.92963e-06)
(0.000106683 0 -6.54611e-06)
(0.000109551 0 -6.18379e-06)
(0.00011223 0 -5.79066e-06)
(0.000114726 0 -5.36068e-06)
(0.000117045 0 -4.92406e-06)
(0.000119201 0 -4.49701e-06)
(0.000121204 0 -4.0754e-06)
(0.000123054 0 -3.66173e-06)
(0.00012475 0 -3.27152e-06)
(0.000126301 0 -2.91016e-06)
(0.00012772 0 -2.5709e-06)
(0.000129006 0 -2.25851e-06)
(0.000130161 0 -1.98821e-06)
(0.000131188 0 -1.75441e-06)
(0.000132088 0 -1.52721e-06)
(0.00013286 0 -1.28816e-06)
(0.000133504 0 -1.04303e-06)
(0.000134026 0 -7.99686e-07)
(0.000134431 0 -5.52581e-07)
(0.000134721 0 -2.96094e-07)
(0.000134901 0 -3.52635e-08)
(0.00013498 0 2.25067e-07)
(0.000134972 0 4.86607e-07)
(0.000134882 0 7.43815e-07)
(0.000134711 0 9.72823e-07)
(0.000134464 0 1.14765e-06)
(0.000134148 0 1.26427e-06)
(0.000133776 0 1.33875e-06)
(0.000133354 0 1.38709e-06)
(0.000132891 0 1.41343e-06)
(0.000132394 0 1.41712e-06)
(0.000131872 0 1.40531e-06)
(0.000131328 0 1.39454e-06)
(0.000130764 0 1.40277e-06)
(0.000130175 0 1.43914e-06)
(0.000129556 0 1.50573e-06)
(0.000128903 0 1.60841e-06)
(0.000128215 0 1.74666e-06)
(0.000127489 0 1.90899e-06)
(0.00012672 0 2.07639e-06)
(0.000125908 0 2.2322e-06)
(0.000125051 0 2.36951e-06)
(0.000124154 0 2.48912e-06)
(0.000123222 0 2.5912e-06)
(0.00012226 0 2.66985e-06)
(0.000121274 0 2.7162e-06)
(0.000120274 0 2.72445e-06)
(0.000119264 0 2.69685e-06)
(0.000118252 0 2.64376e-06)
(0.000117242 0 2.57874e-06)
(0.000116233 0 2.51382e-06)
(0.000115228 0 2.45727e-06)
(0.000114225 0 2.41444e-06)
(0.000113224 0 2.38838e-06)
(0.000112223 0 2.37911e-06)
(0.000111223 0 2.38439e-06)
(0.000110226 0 2.39905e-06)
(0.000109231 0 2.41591e-06)
(0.000108239 0 2.42739e-06)
(0.000107252 0 2.4265e-06)
(0.000106272 0 2.40903e-06)
(0.000105302 0 2.37584e-06)
(0.000104346 0 2.33355e-06)
(0.000103404 0 2.29115e-06)
(0.000102472 0 2.2536e-06)
(0.00010154 0 2.21971e-06)
(0.000100598 0 2.18715e-06)
(9.96452e-05 0 2.16293e-06)
(9.86857e-05 0 2.16634e-06)
(9.77241e-05 0 2.21385e-06)
(9.67577e-05 0 2.29581e-06)
(9.57789e-05 0 2.37795e-06)
(9.47863e-05 0 2.42703e-06)
(9.37904e-05 0 2.43876e-06)
(9.28047e-05 0 2.43078e-06)
(9.18328e-05 0 2.40968e-06)
(9.08684e-05 0 2.35756e-06)
(8.99093e-05 0 2.26162e-06)
(8.89632e-05 0 2.14892e-06)
(8.80352e-05 0 2.07316e-06)
(8.71163e-05 0 2.05846e-06)
(8.6189e-05 0 2.07818e-06)
(8.52459e-05 0 2.10231e-06)
(8.42945e-05 0 2.13548e-06)
(8.33419e-05 0 2.19749e-06)
(8.23851e-05 0 2.28064e-06)
(8.14183e-05 0 2.34783e-06)
(8.0444e-05 0 2.3755e-06)
(7.94694e-05 0 2.37438e-06)
(7.84961e-05 0 2.35984e-06)
(7.75217e-05 0 2.32828e-06)
(7.65472e-05 0 2.27946e-06)
(7.5574e-05 0 2.23505e-06)
(7.45987e-05 0 2.21568e-06)
(7.36178e-05 0 2.22098e-06)
(7.2633e-05 0 2.24699e-06)
(7.16452e-05 0 2.29898e-06)
(7.06513e-05 0 2.3705e-06)
(6.96503e-05 0 2.43046e-06)
(6.86506e-05 0 2.45056e-06)
(6.76641e-05 0 2.43296e-06)
(6.6694e-05 0 2.39671e-06)
(6.57338e-05 0 2.35073e-06)
(6.47759e-05 0 2.29566e-06)
(6.38169e-05 0 2.24472e-06)
(6.28554e-05 0 2.22242e-06)
(6.18879e-05 0 2.24134e-06)
(6.09114e-05 0 2.28929e-06)
(5.99274e-05 0 2.34264e-06)
(5.89418e-05 0 2.3841e-06)
(5.7961e-05 0 2.40497e-06)
(5.6989e-05 0 2.39774e-06)
(5.60284e-05 0 2.35691e-06)
(5.50813e-05 0 2.28821e-06)
(5.41497e-05 0 2.2118e-06)
(5.32331e-05 0 2.15148e-06)
(5.23268e-05 0 2.11874e-06)
(5.14249e-05 0 2.106e-06)
(5.05269e-05 0 2.09713e-06)
(4.96403e-05 0 2.08547e-06)
(4.87724e-05 0 2.07407e-06)
(4.79229e-05 0 2.0554e-06)
(4.70875e-05 0 2.0083e-06)
(4.62658e-05 0 1.92724e-06)
(4.5457e-05 0 1.83897e-06)
(4.4654e-05 0 1.77928e-06)
(4.38484e-05 0 1.7634e-06)
(4.30386e-05 0 1.78586e-06)
(4.22298e-05 0 1.82856e-06)
(4.14289e-05 0 1.8637e-06)
(4.06436e-05 0 1.86679e-06)
(3.98799e-05 0 1.83373e-06)
(3.91364e-05 0 1.77764e-06)
(3.84041e-05 0 1.71788e-06)
(3.76712e-05 0 1.67792e-06)
(3.69274e-05 0 1.67714e-06)
(3.61692e-05 0 1.71572e-06)
(3.54008e-05 0 1.77737e-06)
(3.46298e-05 0 1.83947e-06)
(3.38653e-05 0 1.87791e-06)
(3.31145e-05 0 1.87206e-06)
(3.2378e-05 0 1.81555e-06)
(3.16515e-05 0 1.72978e-06)
(3.09296e-05 0 1.65797e-06)
(3.02073e-05 0 1.63e-06)
(2.94835e-05 0 1.63372e-06)
(2.87702e-05 0 1.63371e-06)
(2.80828e-05 0 1.62735e-06)
(2.7417e-05 0 1.61564e-06)
(2.676e-05 0 1.57487e-06)
(2.61029e-05 0 1.51621e-06)
(2.54405e-05 0 1.47755e-06)
(2.478e-05 0 1.47324e-06)
(2.41301e-05 0 1.49041e-06)
(2.34956e-05 0 1.49994e-06)
(2.28794e-05 0 1.4716e-06)
(2.22873e-05 0 1.40972e-06)
(2.17141e-05 0 1.35526e-06)
(2.11451e-05 0 1.3185e-06)
(2.05787e-05 0 1.28563e-06)
(2.00176e-05 0 1.27544e-06)
(1.94605e-05 0 1.26566e-06)
(1.8912e-05 0 1.23388e-06)
(1.83761e-05 0 1.19061e-06)
(1.78421e-05 0 1.22781e-06)
(1.7335e-05 0 1.26794e-06)
(1.6864e-05 0 1.35292e-06)
(1.63348e-05 0 1.31874e-06)
(1.59267e-05 0 1.10755e-06)
(1.54169e-05 0 9.61632e-07)
(1.54308e-05 0 8.96346e-07)
(1.49773e-05 0 8.37985e-07)
(1.46536e-05 0 7.38207e-07)
(1.4215e-05 0 6.58846e-07)
(1.38445e-05 0 6.47732e-07)
(1.3541e-05 0 5.1509e-07)
(1.32436e-05 0 5.03753e-07)
(1.29672e-05 0 5.0649e-07)
(1.27008e-05 0 6.06527e-07)
(1.2417e-05 0 6.37413e-07)
(1.216e-05 0 5.81401e-07)
(1.18865e-05 0 5.77192e-07)
(1.16392e-05 0 4.20065e-07)
(1.14312e-05 0 5.21204e-07)
(1.11419e-05 0 7.64493e-07)
(1.08669e-05 0 7.15129e-07)
(1.06336e-05 0 6.5633e-07)
(1.03985e-05 0 4.62328e-07)
(1.03357e-05 0 5.19694e-07)
(1.01091e-05 0 4.85283e-07)
(9.973e-06 0 2.79763e-07)
(9.82172e-06 0 1.78767e-07)
(9.70515e-06 0 5.28168e-08)
(9.4791e-06 0 2.86702e-07)
(9.31829e-06 0 5.43691e-08)
(9.31132e-06 0 2.81869e-07)
(9.13632e-06 0 3.422e-07)
(8.98964e-06 0 4.37393e-07)
(8.99688e-06 0 3.02097e-07)
(8.90592e-06 0 8.6452e-08)
(8.82594e-06 0 3.64613e-07)
(8.84077e-06 0 7.2587e-08)
(8.47628e-06 0 -4.48475e-08)
(8.18611e-06 0 2.21285e-07)
(8.24972e-06 0 4.23772e-07)
(7.83417e-06 0 1.39043e-06)
(7.63482e-06 0 4.6266e-07)
(8.89782e-06 0 5.1618e-07)
(7.94278e-06 0 -3.42782e-07)
(1.38295e-05 0 -1.84244e-06)
(1.33083e-05 0 -1.12146e-06)
(1.40783e-05 0 -4.09694e-06)
(1.35655e-05 0 -1.99371e-06)
(1.29841e-05 0 -7.31127e-07)
(1.28843e-05 0 -5.63359e-07)
(1.27016e-05 0 1.97654e-07)
(1.24146e-05 0 5.17503e-07)
(1.20322e-05 0 7.24982e-07)
(1.15226e-05 0 1.04896e-06)
(1.09474e-05 0 1.29112e-06)
(1.04265e-05 0 1.39587e-06)
(9.94966e-06 0 1.49716e-06)
(9.44128e-06 0 1.6075e-06)
(8.89825e-06 0 1.59254e-06)
(8.35499e-06 0 1.42723e-06)
(7.80757e-06 0 1.25967e-06)
(7.23035e-06 0 1.21065e-06)
(6.63458e-06 0 1.23955e-06)