/*--------------------------------*- C++ -*----------------------------------*\
| =========                 |                                                 |
| \\      /  F ield         | OpenFOAM: The Open Source CFD Toolbox           |
|  \\    /   O peration     | Version:  v2006                                 |
|   \\  /    A nd           | Website:  www.openfoam.com                      |
|    \\/     M anipulation  |                                                 |
\*---------------------------------------------------------------------------*/
FoamFile
{
    version     2.0;
    format      ascii;
    class       volScalarField;
    location    "1.4";
    object      nut;
}
// * * * * * * * * * * * * * * * * * * * * * * * * * * * * * * * * * * * * * //

dimensions      [0 2 -1 0 0 0 0];


internalField   nonuniform List<scalar> 
33000
(
1.69387e-08
2.50291e-08
2.54858e-08
2.54677e-08
2.5398e-08
2.54244e-08
2.54215e-08
2.54421e-08
2.54797e-08
2.55313e-08
2.55899e-08
2.56587e-08
2.57398e-08
2.58331e-08
2.5892e-08
2.59442e-08
2.59776e-08
2.60123e-08
2.60557e-08
2.61137e-08
2.61695e-08
2.62284e-08
2.62894e-08
2.63466e-08
2.64086e-08
2.64632e-08
2.65132e-08
2.65638e-08
2.66109e-08
2.66449e-08
2.66686e-08
2.66883e-08
2.67003e-08
2.66933e-08
2.56295e-08
2.33244e-08
2.13898e-08
2.03384e-08
1.92004e-08
1.78346e-08
1.6658e-08
1.54796e-08
1.46065e-08
1.40845e-08
1.34705e-08
1.26372e-08
1.19922e-08
1.15655e-08
1.11266e-08
1.06209e-08
1.01514e-08
9.79731e-09
9.49524e-09
9.22204e-09
8.95152e-09
8.67351e-09
8.43237e-09
8.22608e-09
8.00178e-09
7.7606e-09
7.55853e-09
7.40544e-09
7.24197e-09
7.06376e-09
6.90537e-09
6.7753e-09
6.67333e-09
6.58282e-09
6.49787e-09
6.42676e-09
6.36677e-09
6.30575e-09
6.23626e-09
6.18021e-09
6.11434e-09
5.9899e-09
5.87024e-09
6.19834e-09
7.74181e-09
9.09631e-09
8.88347e-09
9.16434e-09
9.32913e-09
1.02743e-08
1.05792e-08
1.07622e-08
1.06468e-08
1.03671e-08
9.76591e-09
9.50485e-09
9.46794e-09
9.37018e-09
9.32686e-09
9.24005e-09
9.12599e-09
9.04037e-09
8.97071e-09
8.95879e-09
9.00074e-09
9.81493e-09
1.00101e-08
9.74808e-09
9.72661e-09
9.5831e-09
9.82955e-09
9.76061e-09
9.72645e-09
9.69708e-09
9.62464e-09
9.51141e-09
9.45375e-09
9.43042e-09
9.3938e-09
9.37179e-09
9.33918e-09
9.3284e-09
9.35674e-09
1.01698e-08
1.03833e-08
1.01737e-08
1.02409e-08
1.01212e-08
1.03733e-08
1.03249e-08
1.03211e-08
1.02794e-08
1.01925e-08
1.01613e-08
1.0157e-08
1.01405e-08
1.01397e-08
1.01418e-08
1.01405e-08
1.01489e-08
1.01625e-08
1.01797e-08
1.02002e-08
1.02224e-08
1.02492e-08
1.02807e-08
1.03152e-08
1.03541e-08
1.03973e-08
1.04438e-08
1.0492e-08
1.0545e-08
1.0604e-08
1.06673e-08
1.0732e-08
1.08012e-08
1.08743e-08
1.09502e-08
1.10308e-08
1.11166e-08
1.12057e-08
1.12988e-08
1.13969e-08
1.14984e-08
1.16044e-08
1.17155e-08
1.18311e-08
1.19517e-08
1.2078e-08
1.22091e-08
1.23443e-08
1.24851e-08
1.26318e-08
1.27848e-08
1.29443e-08
1.31107e-08
1.32841e-08
1.3389e-08
1.33382e-08
1.32881e-08
1.32387e-08
1.31903e-08
1.31433e-08
1.30975e-08
1.30525e-08
1.30081e-08
1.29643e-08
1.29212e-08
1.28788e-08
1.28372e-08
1.2797e-08
1.27581e-08
1.272e-08
1.26825e-08
1.26456e-08
1.26094e-08
1.25741e-08
1.25402e-08
1.25073e-08
1.24752e-08
1.24436e-08
1.24126e-08
1.23822e-08
1.23526e-08
1.23243e-08
1.2297e-08
1.22704e-08
1.22443e-08
1.22186e-08
1.21936e-08
1.2169e-08
1.21454e-08
1.21231e-08
1.21013e-08
1.20801e-08
1.20593e-08
1.20389e-08
1.2019e-08
1.19997e-08
1.19813e-08
1.19638e-08
1.19467e-08
1.193e-08
1.19137e-08
1.18977e-08
1.18822e-08
1.18672e-08
1.18532e-08
1.18397e-08
1.18264e-08
1.18134e-08
1.18007e-08
1.17882e-08
1.1776e-08
1.17642e-08
1.17531e-08
1.17426e-08
1.17323e-08
1.17223e-08
1.17124e-08
1.17027e-08
1.16932e-08
1.16839e-08
1.16748e-08
1.16661e-08
1.1658e-08
1.16502e-08
1.16426e-08
1.16351e-08
1.16277e-08
1.16205e-08
1.16133e-08
1.16063e-08
1.15996e-08
1.15933e-08
1.15871e-08
1.1581e-08
1.15749e-08
1.1569e-08
1.15632e-08
1.15577e-08
1.15524e-08
1.15473e-08
1.15423e-08
1.15374e-08
1.15326e-08
1.15279e-08
1.15232e-08
1.15185e-08
1.1514e-08
1.15098e-08
1.15057e-08
1.15016e-08
1.14976e-08
1.14937e-08
1.14898e-08
1.1486e-08
1.14825e-08
1.14791e-08
1.14758e-08
1.14726e-08
1.14694e-08
1.14663e-08
1.14632e-08
1.14603e-08
1.14574e-08
1.14546e-08
1.14517e-08
1.14489e-08
1.14461e-08
1.14435e-08
1.1441e-08
1.14386e-08
1.14362e-08
1.1434e-08
1.14318e-08
1.14299e-08
1.1428e-08
1.14261e-08
1.14243e-08
1.14225e-08
1.14207e-08
1.1419e-08
1.14173e-08
1.14156e-08
1.14139e-08
1.14122e-08
1.14104e-08
1.14087e-08
1.14072e-08
1.14057e-08
1.14042e-08
1.14028e-08
1.14015e-08
1.14002e-08
1.1399e-08
1.13978e-08
1.13966e-08
1.13954e-08
1.13942e-08
1.1393e-08
1.13917e-08
1.13905e-08
1.13893e-08
1.13881e-08
1.13869e-08
1.13858e-08
1.13847e-08
1.13836e-08
1.13826e-08
1.13816e-08
1.13807e-08
1.13797e-08
1.13787e-08
1.13776e-08
1.13766e-08
1.13755e-08
1.13744e-08
1.13733e-08
1.13722e-08
1.13712e-08
1.13703e-08
1.13695e-08
1.13686e-08
1.13678e-08
1.1367e-08
1.13661e-08
1.13653e-08
1.13644e-08
1.13634e-08
1.13624e-08
1.13614e-08
1.13604e-08
1.13595e-08
1.13585e-08
1.13576e-08
1.13568e-08
1.13559e-08
1.1355e-08
1.13541e-08
1.13532e-08
1.13522e-08
1.13512e-08
1.13502e-08
1.13492e-08
1.13482e-08
1.13473e-08
1.13464e-08
1.13455e-08
1.13447e-08
1.13438e-08
1.13429e-08
1.13419e-08
1.1341e-08
1.134e-08
1.13391e-08
1.13381e-08
1.13373e-08
1.13364e-08
1.13356e-08
1.13348e-08
1.1334e-08
1.13332e-08
1.13324e-08
1.13316e-08
1.13308e-08
1.13301e-08
1.13294e-08
1.13287e-08
1.13281e-08
1.13274e-08
1.13268e-08
1.13261e-08
1.13254e-08
1.13246e-08
1.13239e-08
1.13233e-08
1.13226e-08
1.1322e-08
1.13214e-08
1.13207e-08
1.132e-08
1.13193e-08
1.13185e-08
1.13178e-08
1.13171e-08
1.13164e-08
1.13158e-08
1.13151e-08
1.13145e-08
1.13139e-08
1.13132e-08
1.13126e-08
1.1312e-08
1.13114e-08
1.13109e-08
1.13103e-08
1.13097e-08
1.13091e-08
1.13086e-08
1.13081e-08
1.13076e-08
1.13071e-08
1.13066e-08
1.13062e-08
1.13057e-08
1.13053e-08
1.13048e-08
1.13044e-08
1.13039e-08
1.13033e-08
1.13028e-08
1.13024e-08
1.1302e-08
1.13017e-08
1.13012e-08
1.13012e-08
1.13008e-08
1.13007e-08
1.13005e-08
1.13004e-08
1.13002e-08
1.12999e-08
1.12997e-08
1.12995e-08
1.12993e-08
1.12993e-08
1.1299e-08
1.12987e-08
1.12984e-08
1.12982e-08
1.12981e-08
1.12978e-08
1.12977e-08
1.12977e-08
1.12978e-08
1.12978e-08
1.12978e-08
1.12978e-08
1.12977e-08
1.12976e-08
1.12973e-08
1.12974e-08
1.12974e-08
1.12972e-08
1.12974e-08
1.12974e-08
1.12973e-08
1.1297e-08
1.12968e-08
1.12967e-08
1.12962e-08
1.12962e-08
1.1297e-08
1.12962e-08
1.13013e-08
1.12999e-08
1.13003e-08
1.13003e-08
1.13001e-08
1.12998e-08
1.12994e-08
1.12989e-08
1.12982e-08
1.12975e-08
1.12968e-08
1.12962e-08
1.12957e-08
1.12954e-08
1.12951e-08
1.12949e-08
1.12947e-08
1.12945e-08
1.12944e-08
1.12943e-08
1.12943e-08
1.12942e-08
1.12942e-08
1.12942e-08
1.12942e-08
1.12942e-08
1.12943e-08
1.12944e-08
1.12946e-08
1.12948e-08
1.12949e-08
1.1295e-08
1.1295e-08
1.12949e-08
1.12947e-08
1.12944e-08
1.12941e-08
1.12939e-08
1.12937e-08
1.12936e-08
1.12936e-08
1.12936e-08
1.12938e-08
1.12939e-08
1.1294e-08
1.1294e-08
1.1294e-08
1.12939e-08
1.12939e-08
1.12939e-08
1.12942e-08
1.12947e-08
1.12953e-08
1.12959e-08
1.12963e-08
1.12965e-08
1.12964e-08
1.12964e-08
1.12967e-08
1.12973e-08
1.12977e-08
1.12976e-08
1.12968e-08
1.12959e-08
1.12953e-08
1.12954e-08
1.12952e-08
1.12946e-08
1.12936e-08
1.12933e-08
1.12938e-08
1.1294e-08
1.12938e-08
1.12941e-08
1.12954e-08
1.12959e-08
1.12956e-08
1.12952e-08
1.12947e-08
1.12942e-08
1.13006e-08
2.47261e-08
1.91186e-08
4.2937e-08
3.12729e-08
4.62635e-08
5.20333e-08
5.65127e-08
6.46214e-08
7.33221e-08
8.56318e-08
1.05902e-07
1.38873e-07
1.97924e-07
3.07436e-07
4.67501e-07
5.41077e-07
3.69309e-07
2.59208e-07
1.88223e-07
1.48568e-07
1.24454e-07
1.05999e-07
9.21268e-08
8.5108e-08
7.94448e-08
7.47073e-08
6.89282e-08
6.19341e-08
5.83747e-08
5.24432e-08
4.47211e-08
4.22538e-08
4.62384e-08
5.75693e-08
5.46092e-08
4.47811e-08
4.11777e-08
4.13174e-08
4.56543e-08
4.78305e-08
4.24246e-08
4.08574e-08
4.33383e-08
4.629e-08
4.51164e-08
4.28638e-08
4.27593e-08
4.30027e-08
4.31633e-08
4.40332e-08
4.57926e-08
4.78551e-08
5.01404e-08
5.32988e-08
5.46731e-08
5.55268e-08
5.84635e-08
5.9712e-08
5.84678e-08
5.84306e-08
6.37847e-08
6.97689e-08
6.656e-08
6.66327e-08
7.27044e-08
8.79925e-08
1.06232e-07
1.24484e-07
1.37114e-07
1.39928e-07
1.23831e-07
9.09979e-08
6.19938e-08
4.56604e-08
3.24135e-08
2.03624e-08
1.55984e-08
1.54303e-08
1.56459e-08
1.10439e-08
7.81109e-09
8.15047e-09
1.37668e-08
1.8177e-08
2.64712e-08
3.56127e-08
8.87585e-08
5.59242e-08
5.25896e-08
1.43847e-07
3.15864e-07
3.06521e-07
1.94697e-07
2.12679e-07
1.98634e-07
1.9558e-07
1.4434e-07
8.36397e-08
9.21489e-08
8.38389e-08
7.89468e-08
4.04853e-08
4.44954e-08
1.02323e-07
9.63374e-08
1.6195e-07
1.47594e-07
5.38044e-07
2.99686e-07
3.49791e-07
1.49488e-06
7.22221e-07
3.50745e-07
2.50476e-07
1.97461e-07
1.11995e-07
1.34583e-07
1.10268e-07
1.0015e-07
4.78645e-08
5.17474e-08
1.24052e-07
1.18132e-07
2.2709e-07
2.23723e-07
7.24442e-07
7.94122e-07
1.01864e-06
8.17489e-07
7.01374e-07
6.0788e-07
6.1169e-07
5.52644e-07
4.83573e-07
4.50198e-07
4.29824e-07
4.12812e-07
3.93684e-07
3.78244e-07
3.63639e-07
3.49553e-07
3.36734e-07
3.25242e-07
3.15439e-07
3.06153e-07
2.97652e-07
2.90148e-07
2.83261e-07
2.77065e-07
2.71613e-07
2.66538e-07
2.61682e-07
2.57274e-07
2.53341e-07
2.49733e-07
2.46446e-07
2.43538e-07
2.4099e-07
2.38726e-07
2.36658e-07
2.3484e-07
2.33311e-07
2.31964e-07
2.3072e-07
2.29657e-07
2.28795e-07
2.28076e-07
2.27534e-07
2.27261e-07
2.27191e-07
2.27221e-07
2.27336e-07
2.27602e-07
2.27998e-07
2.2847e-07
2.29044e-07
2.29772e-07
2.30651e-07
2.31624e-07
2.32688e-07
2.33911e-07
2.35309e-07
2.36835e-07
2.385e-07
2.40352e-07
2.42363e-07
2.44477e-07
2.46677e-07
2.4905e-07
2.51655e-07
2.54491e-07
2.57487e-07
2.60639e-07
2.63945e-07
2.67373e-07
2.70899e-07
2.74569e-07
2.78486e-07
2.82646e-07
2.86982e-07
2.91468e-07
2.96111e-07
3.00925e-07
3.05939e-07
3.11214e-07
3.16826e-07
3.22826e-07
3.29192e-07
3.35848e-07
3.42669e-07
3.49575e-07
3.56552e-07
3.63683e-07
3.71005e-07
3.78591e-07
3.86594e-07
3.95139e-07
4.04241e-07
4.1385e-07
4.23983e-07
4.34601e-07
4.45519e-07
4.56526e-07
4.67568e-07
4.78747e-07
4.90138e-07
5.01864e-07
5.14162e-07
5.27313e-07
5.41393e-07
5.56196e-07
5.71452e-07
5.86864e-07
6.0212e-07
6.17064e-07
6.32026e-07
6.47619e-07
6.64374e-07
6.82532e-07
7.02031e-07
7.22489e-07
7.43342e-07
7.6424e-07
7.85332e-07
8.07121e-07
8.30025e-07
8.53885e-07
8.78279e-07
9.03059e-07
9.28606e-07
9.55272e-07
9.82829e-07
1.01082e-06
1.03937e-06
1.06932e-06
1.10132e-06
1.13493e-06
1.16908e-06
1.20342e-06
1.23853e-06
1.27489e-06
1.31234e-06
1.35083e-06
1.39105e-06
1.43349e-06
1.47773e-06
1.52312e-06
1.57003e-06
1.61925e-06
1.63634e-06
1.63671e-06
1.63706e-06
1.63731e-06
1.6375e-06
1.63766e-06
1.63779e-06
1.63786e-06
1.63791e-06
1.6379e-06
1.63781e-06
1.6377e-06
1.63767e-06
1.63782e-06
1.63815e-06
1.63859e-06
1.63907e-06
1.63959e-06
1.64017e-06
1.6408e-06
1.64142e-06
1.64196e-06
1.64242e-06
1.64279e-06
1.643e-06
1.64306e-06
1.64301e-06
1.64293e-06
1.6429e-06
1.64292e-06
1.64297e-06
1.64304e-06
1.64316e-06
1.64338e-06
1.64373e-06
1.64422e-06
1.64479e-06
1.64538e-06
1.64595e-06
1.64645e-06
1.64686e-06
1.64718e-06
1.6474e-06
1.64753e-06
1.64761e-06
1.64768e-06
1.64778e-06
1.64796e-06
1.64822e-06
1.64855e-06
1.64893e-06
1.64932e-06
1.64972e-06
1.65013e-06
1.65054e-06
1.6509e-06
1.65107e-06
1.65099e-06
1.65073e-06
1.65048e-06
1.65037e-06
1.65043e-06
1.65055e-06
1.65075e-06
1.65113e-06
1.65177e-06
1.65248e-06
1.65298e-06
1.65315e-06
1.65316e-06
1.65314e-06
1.65304e-06
1.65274e-06
1.65231e-06
1.65196e-06
1.65184e-06
1.65188e-06
1.652e-06
1.65222e-06
1.65254e-06
1.65285e-06
1.653e-06
1.653e-06
1.65286e-06
1.65256e-06
1.65214e-06
1.65177e-06
1.65163e-06
1.6517e-06
1.65188e-06
1.65215e-06
1.65251e-06
1.65285e-06
1.65301e-06
1.65291e-06
1.65262e-06
1.6523e-06
1.65202e-06
1.65186e-06
1.65185e-06
1.65204e-06
1.65242e-06
1.65286e-06
1.65321e-06
1.65339e-06
1.65345e-06
1.65348e-06
1.65351e-06
1.65352e-06
1.65358e-06
1.65381e-06
1.65427e-06
1.65479e-06
1.65517e-06
1.65529e-06
1.65515e-06
1.65486e-06
1.65458e-06
1.65447e-06
1.65459e-06
1.65488e-06
1.65522e-06
1.65547e-06
1.65551e-06
1.6553e-06
1.65493e-06
1.65451e-06
1.65421e-06
1.65416e-06
1.65445e-06
1.65495e-06
1.65539e-06
1.65557e-06
1.65555e-06
1.6555e-06
1.65546e-06
1.65545e-06
1.65566e-06
1.65602e-06
1.65626e-06
1.65626e-06
1.65611e-06
1.65597e-06
1.65604e-06
1.65633e-06
1.65662e-06
1.65683e-06
1.65701e-06
1.65703e-06
1.65702e-06
1.65715e-06
1.65735e-06
1.65712e-06
1.65681e-06
1.65652e-06
1.65646e-06
1.65714e-06
1.65743e-06
1.65781e-06
1.65847e-06
1.6591e-06
1.65953e-06
1.65952e-06
1.66027e-06
1.66034e-06
1.66026e-06
1.65969e-06
1.6594e-06
1.6597e-06
1.65965e-06
1.66053e-06
1.66001e-06
1.65866e-06
1.65882e-06
1.65902e-06
1.65991e-06
1.65953e-06
1.65979e-06
1.66086e-06
1.66132e-06
1.66171e-06
1.66103e-06
1.6616e-06
1.66081e-06
1.66054e-06
1.65965e-06
1.66054e-06
1.66159e-06
1.66018e-06
1.66159e-06
1.6618e-06
1.6608e-06
1.66055e-06
1.6577e-06
1.66002e-06
1.65873e-06
1.65964e-06
1.66195e-06
1.66174e-06
1.66169e-06
1.66144e-06
1.66096e-06
1.66156e-06
1.66026e-06
1.65918e-06
1.65849e-06
1.6571e-06
1.65543e-06
1.65436e-06
1.65377e-06
1.65335e-06
1.65359e-06
1.65471e-06
1.65599e-06
1.65654e-06
1.65631e-06
1.65616e-06
1.65665e-06
1.65761e-06
1.6585e-06
1.65899e-06
1.65893e-06
1.65837e-06
1.65752e-06
1.65668e-06
1.65603e-06
1.65569e-06
1.6557e-06
1.65606e-06
1.65686e-06
1.65817e-06
1.66006e-06
1.66181e-06
1.6619e-06
1.66192e-06
1.66193e-06
1.66194e-06
1.66195e-06
1.66195e-06
1.66195e-06
1.66195e-06
1.66194e-06
1.66192e-06
1.66189e-06
1.66185e-06
1.66174e-06
1.66135e-06
1.66145e-06
1.66177e-06
1.66184e-06
1.66187e-06
1.6619e-06
1.66192e-06
1.66191e-06
1.66187e-06
1.66178e-06
1.66096e-06
1.6618e-06
1.66187e-06
1.66189e-06
1.66179e-06
1.65678e-06
1.65188e-06
1.65401e-06
1.66079e-06
1.66171e-06
1.65679e-06
1.65123e-06
1.65438e-06
1.66179e-06
1.66184e-06
1.66138e-06
1.66095e-06
1.6619e-06
1.66191e-06
1.66178e-06
1.65659e-06
1.65915e-06
1.65256e-06
1.65295e-06
1.65252e-06
2.29109e-08
2.11237e-08
3.81686e-08
3.28963e-08
4.81016e-08
5.01038e-08
5.27609e-08
5.90188e-08
6.84084e-08
8.21213e-08
9.97212e-08
1.26081e-07
1.60641e-07
2.10936e-07
3.68346e-07
4.90667e-07
3.65694e-07
2.433e-07
1.75757e-07
1.4374e-07
1.36194e-07
1.20125e-07
9.82989e-08
8.35987e-08
8.09655e-08
7.91409e-08
7.32895e-08
6.56354e-08
5.94446e-08
5.57571e-08
5.1363e-08
4.73447e-08
4.42771e-08
4.8077e-08
4.94009e-08
4.87821e-08
4.4809e-08
4.11802e-08
4.51344e-08
4.73043e-08
4.66747e-08
4.58965e-08
4.1728e-08
4.10273e-08
4.33522e-08
4.46219e-08
4.08821e-08
3.92999e-08
4.0812e-08
4.30386e-08
4.29351e-08
4.31069e-08
4.57054e-08
4.87074e-08
5.08337e-08
5.44105e-08
5.74599e-08
5.59935e-08
5.88841e-08
6.12671e-08
6.27195e-08
6.39607e-08
6.74799e-08
7.077e-08
7.35076e-08
7.83171e-08
8.75267e-08
9.98583e-08
1.09981e-07
1.16908e-07
1.06823e-07
8.36893e-08
6.63431e-08
5.46686e-08
4.53449e-08
3.73845e-08
2.76226e-08
2.32149e-08
1.85236e-08
1.64766e-08
1.51689e-08
1.45103e-08
1.07138e-08
6.93536e-09
7.04252e-09
1.03854e-08
1.45096e-08
1.91175e-08
2.60335e-08
3.46826e-08
5.55773e-08
5.58201e-08
1.97893e-07
1.4803e-06
1.95355e-07
1.33384e-07
1.4667e-07
1.18838e-07
1.11222e-07
1.35264e-07
1.03847e-07
1.22767e-07
8.40652e-08
7.60497e-08
3.84986e-08
4.12832e-08
6.83133e-08
8.67882e-08
1.00385e-07
1.4928e-07
1.43886e-07
3.00665e-07
3.06771e-07
3.94604e-07
3.55738e-07
2.32174e-07
1.90465e-07
2.50408e-07
1.50775e-07
1.7322e-07
1.07086e-07
1.01069e-07
4.75376e-08
5.02343e-08
1.12443e-07
1.09058e-07
2.09657e-07
2.1387e-07
1.20295e-06
1.18866e-06
5.82117e-07
5.14347e-07
4.71955e-07
4.23749e-07
4.25511e-07
4.3486e-07
4.18667e-07
3.87812e-07
3.72278e-07
3.59203e-07
3.44499e-07
3.31605e-07
3.19689e-07
3.10319e-07
3.01698e-07
2.94455e-07
2.87656e-07
2.80102e-07
2.74029e-07
2.68791e-07
2.6391e-07
2.594e-07
2.55144e-07
2.51231e-07
2.47445e-07
2.44233e-07
2.41575e-07
2.39154e-07
2.36996e-07
2.35029e-07
2.33427e-07
2.32014e-07
2.30656e-07
2.29441e-07
2.2842e-07
2.27586e-07
2.2689e-07
2.26395e-07
2.26146e-07
2.26041e-07
2.26033e-07
2.26157e-07
2.264e-07
2.26707e-07
2.2714e-07
2.27712e-07
2.28455e-07
2.29387e-07
2.3043e-07
2.31538e-07
2.32754e-07
2.34098e-07
2.35552e-07
2.37154e-07
2.38954e-07
2.40965e-07
2.432e-07
2.45576e-07
2.48125e-07
2.50845e-07
2.53711e-07
2.56642e-07
2.59672e-07
2.62853e-07
2.66172e-07
2.69625e-07
2.73256e-07
2.77207e-07
2.81464e-07
2.85919e-07
2.9054e-07
2.95284e-07
3.00125e-07
3.0505e-07
3.10132e-07
3.15556e-07
3.21455e-07
3.2782e-07
3.34627e-07
3.41756e-07
3.48971e-07
3.56088e-07
3.63153e-07
3.7035e-07
3.77757e-07
3.85578e-07
3.93976e-07
4.03057e-07
4.12743e-07
4.22867e-07
4.333e-07
4.43922e-07
4.54617e-07
4.6538e-07
4.7641e-07
4.8796e-07
5.00141e-07
5.12992e-07
5.26496e-07
5.40628e-07
5.55246e-07
5.70198e-07
5.85289e-07
6.00253e-07
6.14951e-07
6.29597e-07
6.44733e-07
6.60927e-07
6.78591e-07
6.9785e-07
7.18529e-07
7.40223e-07
7.62315e-07
7.84524e-07
8.06994e-07
8.30043e-07
8.53535e-07
8.76993e-07
9.00313e-07
9.24105e-07
9.49225e-07
9.75902e-07
1.00368e-06
1.03245e-06
1.06325e-06
1.09744e-06
1.13481e-06
1.17321e-06
1.21043e-06
1.24626e-06
1.28198e-06
1.31829e-06
1.35497e-06
1.39222e-06
1.43103e-06
1.47204e-06
1.51545e-06
1.56192e-06
1.61255e-06
1.66749e-06
1.72591e-06
1.7872e-06
1.85129e-06
1.91786e-06
1.98613e-06
2.05533e-06
2.12459e-06
2.19278e-06
2.2593e-06
2.32575e-06
2.39568e-06
2.47234e-06
2.55689e-06
2.64874e-06
2.7473e-06
2.85248e-06
2.96385e-06
3.08038e-06
3.20138e-06
3.32657e-06
3.45499e-06
3.58451e-06
3.71271e-06
3.83879e-06
3.96579e-06
4.09897e-06
4.24207e-06
4.39519e-06
4.55585e-06
4.72248e-06
4.89646e-06
5.08164e-06
5.28172e-06
5.49851e-06
5.73198e-06
5.98131e-06
6.24576e-06
6.52444e-06
6.81517e-06
7.11385e-06
7.41555e-06
7.71629e-06
8.01424e-06
8.31099e-06
8.61249e-06
8.93011e-06
9.27959e-06
9.60612e-06
9.60628e-06
9.60646e-06
9.60665e-06
9.60682e-06
9.60699e-06
9.60714e-06
9.60728e-06
9.60736e-06
9.60735e-06
9.60728e-06
9.6072e-06
9.60718e-06
9.60722e-06
9.60731e-06
9.60742e-06
9.60758e-06
9.60782e-06
9.6081e-06
9.60831e-06
9.60839e-06
9.60838e-06
9.60837e-06
9.60834e-06
9.60825e-06
9.60812e-06
9.608e-06
9.60797e-06
9.60799e-06
9.60804e-06
9.60812e-06
9.60824e-06
9.60834e-06
9.60839e-06
9.60839e-06
9.60834e-06
9.60824e-06
9.60809e-06
9.60798e-06
9.60796e-06
9.60801e-06
9.6081e-06
9.60821e-06
9.60832e-06
9.60843e-06
9.60848e-06
9.60843e-06
9.60833e-06
9.60821e-06
9.60813e-06
9.60809e-06
9.60811e-06
9.6082e-06
9.60835e-06
9.60851e-06
9.60865e-06
9.60872e-06
9.60875e-06
9.60877e-06
9.60881e-06
9.60885e-06
9.6089e-06
9.609e-06
9.60917e-06
9.60936e-06
9.60948e-06
9.6095e-06
9.60945e-06
9.60937e-06
9.6093e-06
9.6093e-06
9.60938e-06
9.6095e-06
9.60962e-06
9.60968e-06
9.60967e-06
9.60957e-06
9.60944e-06
9.60931e-06
9.60923e-06
9.60924e-06
9.60936e-06
9.60953e-06
9.60967e-06
9.60971e-06
9.60971e-06
9.60973e-06
9.60976e-06
9.60979e-06
9.60986e-06
9.60996e-06
9.61003e-06
9.61004e-06
9.61001e-06
9.61e-06
9.61006e-06
9.61019e-06
9.61029e-06
9.61036e-06
9.61041e-06
9.61042e-06
9.61042e-06
9.61048e-06
9.61054e-06
9.61048e-06
9.61044e-06
9.61034e-06
9.61031e-06
9.61063e-06
9.61096e-06
9.61112e-06
9.61114e-06
9.6112e-06
9.61134e-06
9.61147e-06
9.61178e-06
9.61181e-06
9.61183e-06
9.61163e-06
9.61156e-06
9.61164e-06
9.61164e-06
9.61196e-06
9.61176e-06
9.61125e-06
9.61137e-06
9.61146e-06
9.61189e-06
9.61176e-06
9.6118e-06
9.61217e-06
9.6123e-06
9.6124e-06
9.6121e-06
9.61247e-06
9.61222e-06
9.61202e-06
9.61195e-06
9.61225e-06
9.61246e-06
9.61215e-06
9.61239e-06
9.61195e-06
9.61208e-06
9.61213e-06
5.23259e-06
4.65324e-06
9.6124e-06
9.61253e-06
9.61263e-06
9.61256e-06
9.61254e-06
9.61233e-06
9.61223e-06
9.61242e-06
9.61163e-06
9.6111e-06
9.61071e-06
9.61003e-06
9.60958e-06
9.60945e-06
9.60929e-06
9.60907e-06
9.60912e-06
9.6095e-06
9.60987e-06
9.60997e-06
9.6099e-06
9.60998e-06
9.61032e-06
9.61079e-06
9.61118e-06
9.61136e-06
9.61129e-06
9.611e-06
9.61061e-06
9.61027e-06
9.61006e-06
9.61002e-06
9.61014e-06
9.61041e-06
9.61082e-06
9.61141e-06
9.61215e-06
9.61266e-06
9.61268e-06
9.61268e-06
9.61269e-06
9.61269e-06
9.6127e-06
9.6127e-06
9.61271e-06
9.6127e-06
9.6127e-06
9.61269e-06
9.61267e-06
9.61265e-06
9.61261e-06
9.61255e-06
9.61257e-06
9.61261e-06
9.61264e-06
9.61266e-06
9.61267e-06
9.61268e-06
9.61268e-06
9.61266e-06
9.61262e-06
9.6125e-06
9.61262e-06
9.61265e-06
9.61266e-06
9.61243e-06
9.61012e-06
9.60905e-06
9.61048e-06
9.61239e-06
9.61207e-06
9.60975e-06
9.60866e-06
9.61084e-06
9.61262e-06
9.61264e-06
9.61194e-06
9.61256e-06
9.61268e-06
9.61272e-06
9.61206e-06
9.61071e-06
9.61116e-06
9.6094e-06
9.6105e-06
9.60887e-06
1.81588e-08
1.92677e-08
4.05865e-08
2.85101e-08
4.45336e-08
4.69634e-08
5.02581e-08
5.5405e-08
6.35566e-08
7.2562e-08
8.09808e-08
9.38398e-08
1.10012e-07
1.2832e-07
1.50637e-07
1.68678e-07
1.68383e-07
1.48972e-07
1.31417e-07
1.21314e-07
1.17626e-07
1.08072e-07
9.44704e-08
8.31882e-08
7.83174e-08
7.42434e-08
7.08204e-08
6.8434e-08
6.29929e-08
6.10236e-08
6.47871e-08
6.25273e-08
5.04981e-08
4.16325e-08
4.18321e-08
4.84109e-08
5.03344e-08
4.65429e-08
4.28634e-08
4.10893e-08
4.47644e-08
4.57779e-08
4.11164e-08
3.85915e-08
3.97757e-08
4.27783e-08
4.14065e-08
4.07966e-08
4.15073e-08
4.18101e-08
4.10285e-08
4.23055e-08
4.48491e-08
4.6003e-08
4.78522e-08
5.02946e-08
5.24686e-08
5.42719e-08
5.8856e-08
6.10477e-08
6.08059e-08
6.34333e-08
7.04892e-08
7.21488e-08
7.20867e-08
7.2444e-08
7.61703e-08
8.00011e-08
8.44247e-08
8.97638e-08
8.85678e-08
7.35059e-08
5.97537e-08
4.98125e-08
4.31157e-08
4.16526e-08
3.98816e-08
4.11558e-08
4.03693e-08
2.68505e-08
2.25576e-08
1.76216e-08
1.63362e-08
1.52487e-08
1.64168e-08
1.22399e-08
8.53105e-09
6.35643e-09
6.37223e-09
1.1304e-08
1.46795e-08
2.42102e-08
3.22909e-08
5.96048e-08
6.39954e-08
3.50792e-07
7.79228e-07
1.60879e-07
1.2976e-07
1.71711e-07
1.59488e-07
1.36668e-07
1.58357e-07
1.05846e-07
1.26586e-07
9.63065e-08
7.51427e-08
5.7087e-08
3.77259e-08
4.03055e-08
8.15281e-08
7.85942e-08
1.27799e-07
1.30774e-07
2.748e-07
2.4739e-07
3.85941e-07
7.10785e-07
4.74322e-07
2.77211e-07
3.47916e-07
1.60475e-07
1.69448e-07
9.97381e-08
9.6021e-08
4.7297e-08
4.98779e-08
1.06014e-07
1.03207e-07
1.95136e-07
2.01881e-07
9.17423e-07
8.8842e-07
3.98283e-07
3.6646e-07
3.76719e-07
3.89826e-07
3.72527e-07
3.78282e-07
3.66608e-07
3.43041e-07
3.28844e-07
3.17364e-07
3.0886e-07
3.0145e-07
2.94032e-07
2.86543e-07
2.79413e-07
2.73529e-07
2.68299e-07
2.63631e-07
2.59333e-07
2.55148e-07
2.51333e-07
2.47871e-07
2.44807e-07
2.42198e-07
2.39868e-07
2.37792e-07
2.35902e-07
2.34239e-07
2.32732e-07
2.31414e-07
2.30326e-07
2.29366e-07
2.28558e-07
2.27983e-07
2.27546e-07
2.27116e-07
2.26795e-07
2.26734e-07
2.26859e-07
2.27064e-07
2.27387e-07
2.27897e-07
2.28538e-07
2.29289e-07
2.30208e-07
2.31267e-07
2.32438e-07
2.3369e-07
2.35042e-07
2.36503e-07
2.38094e-07
2.39872e-07
2.41918e-07
2.44232e-07
2.46706e-07
2.49295e-07
2.51988e-07
2.54747e-07
2.57562e-07
2.60494e-07
2.63667e-07
2.67059e-07
2.70582e-07
2.74214e-07
2.78126e-07
2.82354e-07
2.86821e-07
2.91547e-07
2.96513e-07
3.01606e-07
3.0673e-07
3.11883e-07
3.1722e-07
3.22838e-07
3.28827e-07
3.35316e-07
3.42381e-07
3.49802e-07
3.57315e-07
3.6487e-07
3.72612e-07
3.80559e-07
3.88701e-07
3.97092e-07
4.05904e-07
4.15156e-07
4.2471e-07
4.34521e-07
4.4471e-07
4.55355e-07
4.66433e-07
4.78002e-07
4.90196e-07
5.02964e-07
5.16118e-07
5.29504e-07
5.43124e-07
5.57087e-07
5.71514e-07
5.86468e-07
6.01894e-07
6.1759e-07
6.33312e-07
6.49026e-07
6.64929e-07
6.81497e-07
6.99398e-07
7.19144e-07
7.40663e-07
7.63261e-07
7.86e-07
8.08318e-07
8.30305e-07
8.52485e-07
8.75197e-07
8.98443e-07
9.22406e-07
9.47746e-07
9.75067e-07
1.00419e-06
1.03456e-06
1.06638e-06
1.10079e-06
1.13821e-06
1.17701e-06
1.21486e-06
1.25139e-06
1.28811e-06
1.32574e-06
1.36305e-06
1.39933e-06
1.43625e-06
1.47611e-06
1.51997e-06
1.56806e-06
1.62055e-06
1.67681e-06
1.73545e-06
1.79565e-06
1.85749e-06
1.92079e-06
1.98469e-06
2.04851e-06
2.11228e-06
2.17601e-06
2.23971e-06
2.30447e-06
2.37308e-06
2.44892e-06
2.53419e-06
2.62947e-06
2.73463e-06
2.84964e-06
2.97416e-06
3.10666e-06
3.24411e-06
3.38251e-06
3.51766e-06
3.64668e-06
3.76876e-06
3.88547e-06
4.00037e-06
4.11715e-06
4.23821e-06
4.36462e-06
4.49735e-06
4.63893e-06
4.79376e-06
4.96678e-06
5.16189e-06
5.38122e-06
5.62515e-06
5.89264e-06
6.18084e-06
6.48462e-06
6.79719e-06
7.11121e-06
7.42037e-06
7.72089e-06
8.0114e-06
8.2937e-06
8.57452e-06
8.86993e-06
9.20801e-06
9.62253e-06
9.99662e-06
9.99662e-06
9.99662e-06
9.99662e-06
9.99662e-06
9.99662e-06
9.99662e-06
9.99661e-06
9.99661e-06
9.9966e-06
9.9966e-06
9.99659e-06
9.99659e-06
9.99659e-06
9.99659e-06
9.99659e-06
9.99659e-06
9.9966e-06
9.9966e-06
9.9966e-06
9.9966e-06
9.99659e-06
9.99659e-06
9.99658e-06
9.99658e-06
9.99658e-06
9.99657e-06
9.99658e-06
9.99658e-06
9.99658e-06
9.99658e-06
9.99659e-06
9.99659e-06
9.99658e-06
9.99658e-06
9.99658e-06
9.99657e-06
9.99657e-06
9.99657e-06
9.99657e-06
9.99657e-06
9.99657e-06
9.99658e-06
9.99658e-06
9.99658e-06
9.99658e-06
9.99657e-06
9.99657e-06
9.99656e-06
9.99656e-06
9.99656e-06
9.99656e-06
9.99657e-06
9.99657e-06
9.99657e-06
9.99657e-06
9.99657e-06
9.99657e-06
9.99657e-06
9.99657e-06
9.99657e-06
9.99657e-06
9.99657e-06
9.99657e-06
9.99657e-06
9.99657e-06
9.99657e-06
9.99657e-06
9.99657e-06
9.99657e-06
9.99657e-06
9.99657e-06
9.99657e-06
9.99657e-06
9.99657e-06
9.99657e-06
9.99656e-06
9.99656e-06
9.99656e-06
9.99656e-06
9.99656e-06
9.99657e-06
9.99657e-06
9.99657e-06
9.99657e-06
9.99656e-06
9.99656e-06
9.99657e-06
9.99657e-06
9.99657e-06
9.99657e-06
9.99657e-06
9.99656e-06
9.99656e-06
9.99656e-06
9.99657e-06
9.99657e-06
9.99657e-06
9.99657e-06
9.99656e-06
9.99656e-06
9.99656e-06
9.99656e-06
9.99656e-06
9.99656e-06
9.99656e-06
9.99656e-06
9.99656e-06
9.99657e-06
9.99657e-06
9.99657e-06
9.99657e-06
9.99657e-06
9.99657e-06
9.99658e-06
9.99657e-06
9.99657e-06
9.99657e-06
9.99657e-06
9.99657e-06
9.99657e-06
9.99657e-06
9.99657e-06
9.99656e-06
9.99657e-06
9.99657e-06
9.99657e-06
9.99657e-06
9.99657e-06
9.99657e-06
9.99658e-06
9.99658e-06
9.99657e-06
9.99658e-06
9.99658e-06
9.99657e-06
9.99657e-06
9.99658e-06
9.99658e-06
9.99666e-06
9.99665e-06
4.59453e-06
4.32172e-06
9.99665e-06
9.99675e-06
9.9968e-06
9.99661e-06
9.9966e-06
9.99659e-06
9.99658e-06
9.99658e-06
9.99659e-06
9.99658e-06
9.99658e-06
9.99657e-06
9.99657e-06
9.99656e-06
9.99654e-06
9.99654e-06
9.99654e-06
9.99654e-06
9.99654e-06
9.99654e-06
9.99655e-06
9.99656e-06
9.99656e-06
9.99655e-06
9.99655e-06
9.99655e-06
9.99656e-06
9.99657e-06
9.99658e-06
9.99658e-06
9.99658e-06
9.99657e-06
9.99656e-06
9.99655e-06
9.99655e-06
9.99655e-06
9.99656e-06
9.99657e-06
9.99658e-06
9.99658e-06
9.99659e-06
9.99659e-06
9.99659e-06
9.99658e-06
9.99658e-06
9.99659e-06
9.99659e-06
9.99659e-06
9.9966e-06
9.9966e-06
9.9966e-06
9.99659e-06
9.99659e-06
9.99659e-06
9.99659e-06
9.99659e-06
9.99659e-06
9.99659e-06
9.99659e-06
9.99659e-06
9.9966e-06
9.9966e-06
9.9966e-06
9.99659e-06
9.99659e-06
9.99659e-06
9.99659e-06
9.9966e-06
9.99658e-06
9.99656e-06
9.99656e-06
9.99657e-06
9.99659e-06
9.99658e-06
9.99656e-06
9.99658e-06
9.99658e-06
9.99662e-06
9.99658e-06
9.99659e-06
9.99663e-06
9.99665e-06
9.99659e-06
9.99658e-06
9.99657e-06
9.99657e-06
9.99658e-06
9.5711e-06
9.99663e-06
1.70793e-08
1.79544e-08
4.40023e-08
2.37864e-08
4.12726e-08
4.26272e-08
4.69556e-08
5.15916e-08
5.83513e-08
6.45143e-08
6.84328e-08
7.44599e-08
8.24692e-08
9.02742e-08
9.83921e-08
1.04954e-07
1.04468e-07
9.82895e-08
9.3137e-08
9.17477e-08
9.13846e-08
8.78498e-08
8.20557e-08
7.58228e-08
7.04548e-08
6.59809e-08
6.34889e-08
6.30569e-08
6.19449e-08
6.24099e-08
6.69505e-08
6.70057e-08
5.89204e-08
4.80801e-08
4.46119e-08
4.56905e-08
4.53281e-08
4.34754e-08
4.10462e-08
3.9435e-08
4.01646e-08
4.01431e-08
3.86849e-08
3.75876e-08
3.81718e-08
4.02069e-08
4.07419e-08
4.09631e-08
4.10852e-08
4.11546e-08
4.10536e-08
4.19683e-08
4.24077e-08
4.30839e-08
4.60888e-08
4.67753e-08
4.77397e-08
5.36462e-08
5.86378e-08
5.99477e-08
6.03534e-08
6.54458e-08
6.94692e-08
6.83353e-08
6.68287e-08
6.78658e-08
6.94604e-08
6.78767e-08
6.67422e-08
6.70819e-08
6.90658e-08
6.59039e-08
5.69168e-08
4.79201e-08
4.19773e-08
4.32847e-08
4.26574e-08
3.99765e-08
4.28726e-08
4.30241e-08
4.73548e-08
5.08684e-08
3.40104e-08
2.92702e-08
2.90475e-08
2.33052e-08
1.44052e-08
1.20771e-08
1.20453e-08
9.62989e-09
5.9938e-09
6.19957e-09
1.06513e-08
1.35914e-08
2.3127e-08
3.09935e-08
6.10028e-08
6.37687e-08
3.4279e-07
1.24017e-06
1.92942e-07
1.6866e-07
2.66457e-07
2.19776e-07
2.01865e-07
2.88173e-07
2.02381e-07
1.01086e-07
1.13843e-07
7.48527e-08
7.12893e-08
3.85028e-08
4.13633e-08
8.23592e-08
8.12384e-08
1.32605e-07
1.37144e-07
3.12149e-07
3.36939e-07
5.87794e-07
1.11451e-06
7.00988e-07
4.10952e-07
4.89322e-07
1.65008e-07
1.66385e-07
9.60316e-08
9.24935e-08
4.75756e-08
4.99795e-08
1.0136e-07
9.87906e-08
1.80629e-07
1.76639e-07
3.33073e-07
8.2694e-07
7.83979e-07
3.69214e-07
3.49759e-07
3.49882e-07
3.27667e-07
3.28386e-07
3.20469e-07
3.05358e-07
2.97363e-07
2.90339e-07
2.82528e-07
2.76875e-07
2.71559e-07
2.66118e-07
2.61443e-07
2.57374e-07
2.53548e-07
2.50123e-07
2.47051e-07
2.44181e-07
2.4153e-07
2.39276e-07
2.3735e-07
2.35567e-07
2.33831e-07
2.32344e-07
2.31227e-07
2.30301e-07
2.29383e-07
2.28568e-07
2.28073e-07
2.2772e-07
2.27245e-07
2.26796e-07
2.2669e-07
2.26877e-07
2.27124e-07
2.2746e-07
2.28006e-07
2.28681e-07
2.29379e-07
2.30208e-07
2.31264e-07
2.32523e-07
2.33896e-07
2.35426e-07
2.3713e-07
2.38883e-07
2.40671e-07
2.42617e-07
2.4477e-07
2.47084e-07
2.49496e-07
2.52065e-07
2.5484e-07
2.57807e-07
2.60936e-07
2.64291e-07
2.67836e-07
2.7144e-07
2.75001e-07
2.78637e-07
2.82533e-07
2.86752e-07
2.91343e-07
2.96423e-07
3.01858e-07
3.07425e-07
3.12968e-07
3.18493e-07
3.24e-07
3.29655e-07
3.35705e-07
3.42463e-07
3.49958e-07
3.57917e-07
3.66042e-07
3.7431e-07
3.82729e-07
3.91114e-07
3.99397e-07
4.07834e-07
4.16693e-07
4.25983e-07
4.35657e-07
4.4588e-07
4.56733e-07
4.68057e-07
4.79762e-07
4.91906e-07
5.04551e-07
5.17595e-07
5.30882e-07
5.44361e-07
5.58108e-07
5.72319e-07
5.87252e-07
6.03061e-07
6.19589e-07
6.36433e-07
6.53182e-07
6.69683e-07
6.86126e-07
7.03174e-07
7.21615e-07
7.41702e-07
7.63095e-07
7.84955e-07
8.06569e-07
8.28013e-07
8.50171e-07
8.73738e-07
8.9858e-07