/*--------------------------------*- C++ -*----------------------------------*\
| =========                 |                                                 |
| \\      /  F ield         | OpenFOAM: The Open Source CFD Toolbox           |
|  \\    /   O peration     | Version:  v2006                                 |
|   \\  /    A nd           | Website:  www.openfoam.com                      |
|    \\/     M anipulation  |                                                 |
\*---------------------------------------------------------------------------*/
FoamFile
{
    version     2.0;
    format      ascii;
    class       volScalarField;
    location    "1.4";
    object      omega;
}
// * * * * * * * * * * * * * * * * * * * * * * * * * * * * * * * * * * * * * //

dimensions      [0 0 -1 0 0 0 0];


internalField   nonuniform List<scalar> 
33000
(
0.802676
0.802494
0.802529
0.80253
0.802524
0.802527
0.802527
0.80253
0.802534
0.802539
0.802546
0.802553
0.802562
0.802571
0.802577
0.802582
0.802585
0.802588
0.802593
0.802598
0.802603
0.802608
0.802613
0.802618
0.802623
0.802627
0.80263
0.802634
0.802637
0.802639
0.802639
0.802639
0.802638
0.802636
0.802634
0.802634
0.80263
0.802625
0.80262
0.802613
0.802605
0.802596
0.802586
0.802575
0.802565
0.802554
0.802542
0.80253
0.802517
0.802505
0.802492
0.802479
0.802467
0.802455
0.802443
0.802432
0.802421
0.80241
0.802399
0.802387
0.802374
0.802361
0.802349
0.802336
0.802323
0.80231
0.802296
0.802281
0.802267
0.802251
0.802234
0.802215
0.802193
0.802165
0.802131
0.802089
0.802037
0.801972
0.801886
0.801907
0.80188
0.801887
0.801881
0.801875
0.801873
0.801866
0.801856
0.801849
0.801843
0.801838
0.801831
0.801824
0.801818
0.801812
0.801806
0.801798
0.80179
0.801782
0.801774
0.801764
0.801759
0.801752
0.801746
0.801739
0.801733
0.801726
0.801719
0.801712
0.801705
0.801698
0.801691
0.801684
0.801677
0.80167
0.801662
0.801655
0.801647
0.801635
0.80163
0.801623
0.801617
0.80161
0.801604
0.801598
0.801591
0.801585
0.801578
0.801572
0.801566
0.801559
0.801553
0.801547
0.80154
0.801534
0.801528
0.801521
0.801515
0.801509
0.801503
0.801497
0.801491
0.801485
0.801479
0.801473
0.801466
0.80146
0.801454
0.801449
0.801443
0.801437
0.801431
0.801425
0.801419
0.801413
0.801407
0.801401
0.801396
0.80139
0.801384
0.801378
0.801372
0.801367
0.801361
0.801356
0.80135
0.801345
0.801339
0.801334
0.801329
0.801324
0.801319
0.801314
0.801309
0.801305
0.8013
0.801296
0.801291
0.801287
0.801283
0.801279
0.801275
0.801271
0.801267
0.801263
0.801259
0.801256
0.801252
0.801249
0.801245
0.801242
0.801239
0.801236
0.801233
0.80123
0.801227
0.801224
0.801221
0.801218
0.801216
0.801213
0.801211
0.801209
0.801206
0.801204
0.801202
0.8012
0.801197
0.801196
0.801194
0.801192
0.80119
0.801188
0.801186
0.801185
0.801183
0.801182
0.80118
0.801179
0.801177
0.801176
0.801174
0.801173
0.801172
0.801171
0.80117
0.801169
0.801167
0.801166
0.801165
0.801164
0.801163
0.801162
0.801162
0.801161
0.80116
0.801159
0.801158
0.801157
0.801157
0.801156
0.801155
0.801154
0.801154
0.801153
0.801153
0.801152
0.801151
0.801151
0.80115
0.80115
0.801149
0.801148
0.801148
0.801147
0.801147
0.801146
0.801146
0.801146
0.801145
0.801145
0.801144
0.801144
0.801143
0.801143
0.801143
0.801142
0.801142
0.801142
0.801141
0.801141
0.801141
0.80114
0.80114
0.80114
0.801139
0.801139
0.801139
0.801139
0.801138
0.801138
0.801138
0.801137
0.801137
0.801137
0.801137
0.801136
0.801136
0.801136
0.801136
0.801136
0.801135
0.801135
0.801135
0.801135
0.801135
0.801135
0.801135
0.801134
0.801134
0.801134
0.801134
0.801134
0.801134
0.801133
0.801133
0.801133
0.801133
0.801133
0.801133
0.801133
0.801132
0.801132
0.801132
0.801132
0.801132
0.801132
0.801132
0.801132
0.801131
0.801131
0.801131
0.801131
0.801131
0.801131
0.801131
0.801131
0.801131
0.80113
0.80113
0.80113
0.80113
0.80113
0.80113
0.80113
0.80113
0.80113
0.801129
0.801129
0.801129
0.801129
0.801129
0.801129
0.801129
0.801129
0.801129
0.801129
0.801129
0.801128
0.801128
0.801128
0.801128
0.801128
0.801128
0.801128
0.801128
0.801128
0.801128
0.801128
0.801127
0.801127
0.801127
0.801127
0.801127
0.801127
0.801127
0.801127
0.801127
0.801127
0.801127
0.801126
0.801126
0.801126
0.801126
0.801126
0.801126
0.801126
0.801126
0.801126
0.801126
0.801126
0.801126
0.801126
0.801125
0.801125
0.801125
0.801125
0.801125
0.801125
0.801125
0.801125
0.801125
0.801125
0.801125
0.801125
0.801125
0.801125
0.801125
0.801124
0.801124
0.801124
0.801124
0.801124
0.801124
0.801124
0.801124
0.801124
0.801124
0.801124
0.801124
0.801124
0.801124
0.801124
0.801124
0.801124
0.801123
0.801123
0.801123
0.801123
0.801123
0.801123
0.801123
0.801123
0.801123
0.801123
0.801123
0.801123
0.801123
0.801123
0.801123
0.801123
0.801123
0.801123
0.801123
0.801123
0.801123
0.801123
0.801123
0.801123
0.801123
0.801123
0.801123
0.801123
0.801123
0.801123
0.801123
0.801123
0.801122
0.801122
0.801122
0.801122
0.801122
0.801122
0.801122
0.801122
0.801122
0.801122
0.801122
0.801122
0.801122
0.801122
0.801122
0.801122
0.801122
0.801122
0.801122
0.801122
0.801122
0.801122
0.801122
0.801123
0.801123
0.801123
0.801123
0.801123
0.801123
0.801123
0.801123
0.801123
0.801122
0.801122
0.801122
0.801122
0.801122
0.801122
0.801122
0.801122
0.801122
0.801122
0.801122
0.801122
0.801122
0.801122
0.801122
0.801122
0.801122
0.801122
0.801122
0.801122
0.801122
0.801122
0.801122
0.801122
0.801122
0.801122
0.801122
0.801122
0.801122
0.801122
0.801122
0.801122
0.801122
0.801122
0.801122
0.801122
0.801122
0.801122
0.801122
0.801122
0.801122
0.801122
0.801122
0.801122
0.801122
0.801122
0.801122
0.801122
0.801122
0.801122
0.801122
0.801122
0.801122
0.801122
0.801122
0.801122
0.801122
0.801122
0.801122
0.801122
0.801122
0.801122
0.801122
0.801122
0.801122
0.801122
0.801122
0.801122
0.801122
0.801122
0.801122
0.801123
0.00949455
0.0149324
0.0138237
0.0126275
0.0135622
0.0143665
0.01431
0.0142199
0.0142274
0.0141744
0.014275
0.0145347
0.0148916
0.0158856
0.0159972
0.0160336
0.016195
0.0163607
0.0165379
0.0168748
0.0174207
0.017579
0.0173543
0.0169575
0.0171494
0.0174529
0.0175681
0.0174213
0.0171836
0.0175016
0.0176749
0.0173055
0.0163436
0.0162726
0.0166911
0.0167416
0.0160456
0.0149273
0.015387
0.0157202
0.0157708
0.0154226
0.01409
0.0134272
0.0138739
0.0141028
0.0129076
0.0120508
0.012012
0.0121232
0.0115564
0.0106753
0.0101756
0.00987153
0.00988407
0.0097489
0.00944743
0.00930761
0.00942096
0.00924068
0.00875596
0.00843294
0.00840961
0.00822568
0.00788547
0.00751228
0.00721698
0.00705893
0.00694874
0.0069171
0.00706094
0.00732787
0.00776084
0.00845861
0.0095583
0.0111145
0.0125382
0.0122801
0.00976237
0.00731566
0.00746707
0.00876814
0.0074358
0.00923361
0.00980778
0.00560145
0.00548675
0.00584466
0.00607479
0.00590543
0.00596415
0.00585288
0.00545153
0.00540947
0.00532855
0.00530589
0.00529679
0.0052962
0.00532265
0.00528832
0.00523123
0.00528534
0.00563479
0.00533928
0.00559384
0.00555193
0.00529927
0.0053152
0.00536419
0.00536606
0.00533019
0.00532006
0.00531972
0.00532767
0.00534358
0.00535751
0.00544969
0.00538349
0.00527457
0.00515315
0.00529106
0.005278
0.00539522
0.00542884
0.00535871
0.00544673
0.00545475
0.00540998
0.00541296
0.00542091
0.00542791
0.0054378
0.0054468
0.00545383
0.00546266
0.0054723
0.00548246
0.00549327
0.00550281
0.00551182
0.00552151
0.00553185
0.00554286
0.00555401
0.00556578
0.00557644
0.00558571
0.00559553
0.00560638
0.00561776
0.0056287
0.00563969
0.00565014
0.00565999
0.00566978
0.00568032
0.00569157
0.00570255
0.00571349
0.00572341
0.00573255
0.0057417
0.00575078
0.00575999
0.00576995
0.00578028
0.00578829
0.00579521
0.00580284
0.00580956
0.00581487
0.00581929
0.00582225
0.00582557
0.00582872
0.0058315
0.00583492
0.00583823
0.00584051
0.00584282
0.00584577
0.0058491
0.00585239
0.00585622
0.00586077
0.00586447
0.00586806
0.00587172
0.00587582
0.00588044
0.00588454
0.00588789
0.00589144
0.00589536
0.0058997
0.00590422
0.00590884
0.00591236
0.00591653
0.00592102
0.00592574
0.00593071
0.0059347
0.00593836
0.00594245
0.00594688
0.0059514
0.0059559
0.00595929
0.00596269
0.00596627
0.00597058
0.00597559
0.0059798
0.0059838
0.00598826
0.00599321
0.00599819
0.00600239
0.00600636
0.00601087
0.00601549
0.00601997
0.00602344
0.00602719
0.00603145
0.00603539
0.0060392
0.00604256
0.00604557
0.00604866
0.00605214
0.00605574
0.00605899
0.00606161
0.00606444
0.0060676
0.00607121
0.00607419
0.00607657
0.00607896
0.00608158
0.00608393
0.00608615
0.00608896
0.00609186
0.00609427
0.00609601
0.00609796
0.00610027
0.00610251
0.00610386
0.0061046
0.00610543
0.00610654
0.00610773
0.00610834
0.00610796
0.00610713
0.00610692
0.00610758
0.0061081
0.00610859
0.0061091
0.00610957
0.00610941
0.00610891
0.00610832
0.00610771
0.00610668
0.00610529
0.00610397
0.00610301
0.00610229
0.00610165
0.00610116
0.00610087
0.00610069
0.00610071
0.00610102
0.00610143
0.00610153
0.00610095
0.00609969
0.00609806
0.00609627
0.00609432
0.00609216
0.00608981
0.00608751
0.00608547
0.00608378
0.00608241
0.00608162
0.00608137
0.00608155
0.00608184
0.00608195
0.00608186
0.00608169
0.00608142
0.00608097
0.00608016
0.00607885
0.00607704
0.00607493
0.00607273
0.00607065
0.0060688
0.00606726
0.00606609
0.00606529
0.00606482
0.00606452
0.00606425
0.00606386
0.00606322
0.00606227
0.00606104
0.00605965
0.0060582
0.00605674
0.00605524
0.00605371
0.00605241
0.00605175
0.00605206
0.00605301
0.00605394
0.00605431
0.00605411
0.00605365
0.00605294
0.00605153
0.00604921
0.0060466
0.00604478
0.00604413
0.0060441
0.00604416
0.00604452
0.00604564
0.0060472
0.00604847
0.00604891
0.00604877
0.00604834
0.00604753
0.00604633
0.00604522
0.00604465
0.00604466
0.00604516
0.00604627
0.00604782
0.00604914
0.00604965
0.0060494
0.00604873
0.00604775
0.00604645
0.0060452
0.00604461
0.00604497
0.00604602
0.00604721
0.00604821
0.00604882
0.00604885
0.00604813
0.00604675
0.00604514
0.00604387
0.0060432
0.00604298
0.00604287
0.00604276
0.00604271
0.0060425
0.00604165
0.00604
0.00603808
0.0060367
0.00603626
0.00603675
0.00603783
0.00603886
0.00603923
0.00603879
0.00603776
0.00603652
0.00603559
0.00603546
0.00603622
0.00603757
0.00603908
0.0060402
0.00604037
0.00603931
0.00603748
0.00603588
0.00603522
0.0060353
0.00603546
0.00603561
0.00603563
0.00603487
0.00603357
0.0060327
0.00603269
0.00603326
0.00603376
0.00603348
0.00603243
0.00603139
0.00603061
0.00602997
0.00602991
0.00602994
0.00602946
0.00602874
0.00602957
0.0060307
0.00603173
0.00603195
0.00602949
0.00602844
0.00602704
0.00602466
0.00602238
0.00602081
0.00602083
0.00601812
0.00601788
0.00601814
0.00602021
0.00602127
0.00602019
0.00602037
0.00601719
0.00601908
0.00602397
0.00602339
0.00602265
0.00601944
0.00602079
0.00601985
0.00601598
0.00601433
0.00601291
0.00601535
0.00601331
0.00601616
0.00601714
0.00602036
0.00601715
0.00601335
0.00601843
0.00601334
0.00601259
0.00601618
0.0060171
0.00602745
0.00601903
0.0060237
0.00602048
0.00601212
0.00601279
0.00601299
0.00601387
0.0060156
0.00601344
0.00601815
0.00602204
0.00602454
0.0060296
0.00603568
0.00603959
0.00604172
0.00604325
0.0060424
0.00603832
0.00603366
0.00603166
0.00603248
0.00603303
0.00603125
0.00602775
0.00602453
0.00602275
0.00602295
0.00602499
0.0060281
0.00603116
0.00603353
0.00603475
0.00603472
0.00603341
0.00603049
0.00602573
0.00601888
0.00601257
0.00601223
0.00601217
0.00601212
0.00601209
0.00601207
0.00601206
0.00601206
0.00601207
0.0060121
0.00601216
0.00601227
0.00601244
0.00601283
0.00601423
0.00601387
0.00601271
0.00601246
0.00601234
0.00601223
0.00601217
0.00601221
0.00601237
0.00601267
0.00601566
0.00601259
0.00601234
0.0060123
0.00601264
0.0060308
0.00604869
0.00604092
0.00601626
0.00601295
0.0060308
0.00605106
0.00603957
0.00601266
0.00601245
0.00601412
0.00601567
0.00601224
0.0060122
0.00601269
0.00603149
0.00602221
0.00604619
0.00604477
0.0060464
0.0018205
0.00171509
0.00132427
0.00123473
0.00124659
0.00126077
0.00125884
0.00125907
0.00126256
0.00126557
0.00127389
0.00128639
0.00130093
0.00132792
0.00133677
0.00134465
0.00135311
0.00135922
0.00136889
0.001381
0.00139451
0.0014004
0.00139905
0.00139104
0.00139417
0.0013996
0.00140167
0.00140366
0.00139814
0.00140721
0.00142578
0.00141902
0.00138191
0.00134615
0.00135255
0.00137086
0.00135859
0.00133152
0.00132254
0.00131619
0.00132594
0.00131907
0.00128123
0.00125937
0.00126325
0.00126985
0.00124373
0.00122475
0.00121926
0.00121663
0.0012013
0.00118188
0.00116948
0.00115949
0.00115568
0.00115136
0.00114378
0.0011393
0.00113986
0.00113645
0.00112724
0.00112031
0.00112082
0.00111914
0.00111481
0.00110861
0.00110552
0.00110487
0.00110557
0.00110794
0.00111253
0.00111995
0.00112914
0.00114047
0.00115425
0.0011702
0.00118922
0.00120396
0.00121863
0.00124705
0.00128446
0.0013565
0.00148152
0.00171003
0.00163397
0.00137778
0.00130079
0.00123119
0.00112758
0.00109127
0.00104326
0.00104558
0.00103243
0.00103286
0.00103278
0.00103388
0.00103087
0.00103105
0.00103127
0.00103066
0.00103412
0.00103406
0.00103977
0.00104284
0.00105797
0.00105596
0.0010418
0.00103976
0.00103738
0.00103285
0.00103171
0.00102827
0.00102828
0.00102902
0.00102888
0.00102877
0.00102868
0.00102795
0.00102998
0.0010294
0.00103329
0.00103523
0.00104648
0.00104495
0.0010332
0.00103369
0.00102915
0.00102852
0.00102664
0.0010266
0.0010275
0.00102766
0.00102767
0.00102787
0.00102798
0.001028
0.00102799
0.00102804
0.00102807
0.00102809
0.00102815
0.00102822
0.00102832
0.00102841
0.00102848
0.00102849
0.00102849
0.00102851
0.00102855
0.00102861
0.00102867
0.00102876
0.0010288
0.00102883
0.00102887
0.00102888
0.00102891
0.00102895
0.001029
0.00102905
0.0010291
0.00102911
0.00102912
0.00102914
0.00102915
0.00102919
0.00102921
0.00102924
0.00102929
0.0010293
0.00102929
0.00102928
0.00102928
0.00102926
0.00102926
0.00102927
0.00102929
0.00102927
0.00102925
0.00102924
0.00102924
0.00102927
0.00102931
0.00102937
0.0010294
0.00102937
0.00102935
0.00102935
0.00102936
0.0010294
0.00102946
0.00102948
0.00102948
0.00102949
0.00102952
0.00102957
0.00102964
0.00102966
0.00102966
0.00102968
0.00102972
0.00102977
0.00102982
0.0010299
0.00103
0.00103003
0.00103006
0.00103011
0.00103017
0.00103022
0.00103028
0.00103031
0.00103038
0.00103048
0.00103059
0.0010307
0.00103082
0.00103089
0.00103094
0.00103102
0.00103112
0.00103127
0.00103142
0.00103151
0.0010316
0.00103171
0.00103183
0.00103196
0.00103208
0.00103215
0.00103224
0.00103232
0.00103243
0.00103259
0.00103274
0.00103286
0.001033
0.00103313
0.00103326
0.00103337
0.00103349
0.00103358
0.00103365
0.00103374
0.00103386
0.00103399
0.00103412
0.00103423
0.00103435
0.00103449
0.00103461
0.00103474
0.00103487
0.00103503
0.00103518
0.00103521
0.00103522
0.00103526
0.00103534
0.00103547
0.00103563
0.00103581
0.00103595
0.00103611
0.00103627
0.00103642
0.00103656
0.00103669
0.00103681
0.00103692
0.00103698
0.00103706
0.00103716
0.00103728
0.00103742
0.00103756
0.00103769
0.00103783
0.00103801
0.00103818
0.00103837
0.00103854
0.0010387
0.00103884
0.00103895
0.00103906
0.00103916
0.00103927
0.00103939
0.0010395
0.0010396
0.00103971
0.00103985
0.00104
0.00104016
0.0010403
0.00104043
0.00104055
0.00104066
0.00104077
0.00104085
0.00104089
0.00104091
0.00104094
0.00104096
0.00104097
0.00104096
0.00104096
0.00104096
0.00104097
0.00104097
0.00104096
0.00104095
0.00104094
0.00104094
0.00104093
0.00104091
0.0010409
0.00104088
0.00104086
0.00104084
0.00104082
0.0010408
0.00104078
0.00104077
0.00104076
0.00104076
0.00104076
0.00104077
0.00104077
0.00104077
0.00104076
0.00104074
0.00104073
0.0010407
0.00104067
0.00104065
0.00104064
0.00104064
0.00104064
0.00104064
0.00104065
0.00104067
0.00104068
0.00104068
0.00104068
0.00104067
0.00104066
0.00104065
0.00104064
0.00104064
0.00104064
0.00104064
0.00104065
0.00104067
0.00104068
0.00104068
0.00104067
0.00104066
0.00104065
0.00104064
0.00104063
0.00104062
0.00104063
0.00104064
0.00104065
0.00104066
0.00104066
0.00104066
0.00104065
0.00104063
0.00104062
0.0010406
0.00104059
0.00104059
0.00104059
0.00104058
0.00104058
0.00104057
0.00104056
0.00104054
0.00104052
0.00104051
0.00104051
0.00104051
0.00104052
0.00104053
0.00104053
0.00104052
0.00104051
0.00104049
0.00104049
0.00104049
0.0010405
0.00104051
0.00104053
0.00104053
0.00104053
0.00104052
0.0010405
0.00104049
0.00104048
0.00104048
0.00104048
0.00104047
0.00104047
0.00104046
0.00104045
0.00104045
0.00104045
0.00104045
0.00104045
0.00104044
0.00104043
0.00104042
0.00104041
0.0010404
0.0010404
0.0010404
0.0010404
0.00104039
0.00104039
0.0010404
0.00104041
0.00104041
0.00104038
0.00104034
0.00104032
0.00104032
0.00104032
0.0010403
0.00104029
0.00104025
0.00104025
0.00104025
0.00104027
0.00104028
0.00104027
0.00104027
0.00104023
0.00104025
0.00104031
0.0010403
0.00104029
0.00104024
0.00104025
0.00104025
0.00104021
0.00104019
0.00104018
0.00104022
0.00104018
0.0010402
0.00104022
0.00104023
0.0010402
0.00104018
0.00104021
0.00104019
0.00104023
0.00104024
0.00104023
0.00103883
0.001038
0.00104019
0.00104018
0.00104016
0.00104017
0.00104017
0.00104019
0.0010402
0.00104018
0.00104027
0.00104032
0.00104037
0.00104044
0.00104049
0.0010405
0.00104052
0.00104054
0.00104054
0.0010405
0.00104046
0.00104045
0.00104046
0.00104045
0.00104041
0.00104036
0.00104032
0.0010403
0.00104031
0.00104034
0.00104038
0.00104042
0.00104044
0.00104044
0.00104043
0.0010404
0.00104036
0.00104029
0.00104021
0.00104016
0.00104016
0.00104016
0.00104016
0.00104016
0.00104016
0.00104016
0.00104016
0.00104016
0.00104016
0.00104016
0.00104016
0.00104016
0.00104017
0.00104017
0.00104017
0.00104017
0.00104016
0.00104016
0.00104016
0.00104016
0.00104016
0.00104016
0.00104017
0.00104018
0.00104016
0.00104016
0.00104016
0.00104019
0.00104043
0.00104055
0.0010404
0.00104019
0.00104023
0.00104048
0.0010406
0.00104036
0.00104017
0.00104017
0.00104024
0.00104017
0.00104016
0.00104017
0.00104023
0.00104037
0.00104032
0.00104052
0.0010404
0.00104059
0.00183464
0.00156441
0.00116282
0.00108876
0.00108061
0.00108129
0.0010816
0.00108301
0.0010841
0.00108568
0.00108748
0.00108914
0.00109072
0.00109214
0.00109361
0.00109483
0.00109608
0.00109743
0.00109862
0.00109955
0.00110007
0.00110066
0.00110163
0.00110258
0.00110303
0.00110318
0.00110295
0.00110254
0.0011026
0.00110189
0.00110029
0.00110039
0.00110302
0.00110488
0.00110258
0.0010985
0.00109649
0.00109681
0.00109753
0.00109657
0.00109407
0.00109334
0.00109431
0.00109401
0.00109218
0.00109023
0.00108973
0.00108877
0.00108726
0.00108619
0.0010857
0.0010843
0.00108224
0.00108062
0.00107924
0.00107812
0.00107686
0.00107567
0.00107479
0.00107464
0.00107449
0.00107362
0.00107307
0.00107406
0.00107546
0.00107635
0.00107703
0.00107807
0.00107937
0.00108082
0.00108237
0.00108429
0.00108631
0.0010883
0.00108865
0.00108495
0.00107837
0.00106948
0.00106486
0.0010769
0.00109977
0.00114063
0.00119133
0.00123265
0.00128893
0.00137959
0.00152585
0.00169338
0.00160696
0.00131693
0.00124206
0.00109447
0.00107664
0.00102498
0.00102618
0.00101897
0.00101979
0.00102004
0.00102105
0.001017
0.00101652
0.00101708
0.00101772
0.00102196
0.00102194
0.00102608
0.00102956
0.00103368
0.00104439
0.00104099
0.00102646
0.00102588
0.00101946
0.00101863
0.0010147
0.00101442
0.00101429
0.00101348
0.00101326
0.00101305
0.00101333
0.00101623
0.0010167
0.00102077
0.00102181
0.00103232
0.00103029
0.00101921
0.00101894
0.0010141
0.0010137
0.0010115
0.00101136
0.00101225
0.0010123
0.00101203
0.00101176
0.0010117
0.00101158
0.00101148
0.00101141
0.00101133
0.00101123
0.00101113
0.00101101
0.0010109
0.00101078
0.00101067
0.00101056
0.00101044
0.00101033
0.00101021
0.0010101
0.00100999
0.00100988
0.00100977
0.00100965
0.00100952
0.0010094
0.00100928
0.00100916
0.00100904
0.00100891
0.00100878
0.00100866
0.00100853
0.0010084
0.00100827
0.00100815
0.00100802
0.00100789
0.00100776
0.00100763
0.00100751
0.00100738
0.00100725
0.00100712
0.00100699
0.00100686
0.00100673
0.00100661
0.00100648
0.00100636
0.00100623
0.00100611
0.00100598
0.00100585
0.00100572
0.00100559
0.00100546
0.00100533
0.00100521
0.00100509
0.00100497
0.00100485
0.00100473
0.00100461
0.0010045
0.00100438
0.00100426
0.00100415
0.00100403
0.00100392
0.00100381
0.00100371
0.0010036
0.0010035
0.00100339
0.00100329
0.00100318
0.00100308
0.00100297
0.00100288
0.00100278
0.0010027
0.00100261
0.00100252
0.00100244
0.00100236
0.00100228
0.0010022
0.00100212
0.00100205
0.00100197
0.0010019
0.00100183
0.00100176
0.0010017
0.00100164
0.00100157
0.00100151
0.00100145
0.0010014
0.00100135
0.0010013
0.00100125
0.00100121
0.00100116
0.00100112
0.00100108
0.00100103
0.00100099
0.00100094
0.0010009
0.00100087
0.00100083
0.0010008
0.00100077
0.00100074
0.00100071
0.00100068
0.00100066
0.00100063
0.0010006
0.00100058
0.00100055
0.00100052
0.0010005
0.00100047
0.00100046
0.00100044
0.00100043
0.00100041
0.0010004
0.00100039
0.00100038
0.00100037
0.00100036
0.00100035
0.00100034
0.00100033
0.00100032
0.00100031
0.00100031
0.0010003
0.0010003
0.00100029
0.00100029
0.00100028
0.00100028
0.00100028
0.00100028
0.00100027
0.00100027
0.00100027
0.00100027
0.00100026
0.00100026
0.00100026
0.00100026
0.00100026
0.00100026
0.00100026
0.00100026
0.00100026
0.00100026
0.00100026
0.00100026
0.00100026
0.00100026
0.00100026
0.00100026
0.00100026
0.00100026
0.00100026
0.00100026
0.00100026
0.00100025
0.00100025
0.00100025
0.00100025
0.00100025
0.00100025
0.00100025
0.00100025
0.00100025
0.00100025
0.00100024
0.00100024
0.00100024
0.00100024
0.00100024
0.00100024
0.00100024
0.00100024
0.00100024
0.00100024
0.00100024
0.00100024
0.00100024
0.00100024
0.00100024
0.00100024
0.00100024
0.00100024
0.00100024
0.00100024
0.00100024
0.00100023
0.00100023
0.00100023
0.00100023
0.00100023
0.00100023
0.00100023
0.00100023
0.00100023
0.00100023
0.00100023
0.00100023
0.00100023
0.00100023
0.00100023
0.00100023
0.00100023
0.00100023
0.00100023
0.00100023
0.00100023
0.00100023
0.00100023
0.00100023
0.00100023
0.00100023
0.00100023
0.00100023
0.00100023
0.00100023
0.00100023
0.00100023
0.00100023
0.00100023
0.00100023
0.00100023
0.00100023
0.00100023
0.00100023
0.00100023
0.00100023
0.00100023
0.00100023
0.00100023
0.00100023
0.00100023
0.00100023
0.00100023
0.00100023
0.00100023
0.00100023
0.00100023
0.00100023
0.00100023
0.00100023
0.00100022
0.00100022
0.00100022
0.00100022
0.00100022
0.00100022
0.00100022
0.00100022
0.00100022
0.00100022
0.00100022
0.00100022
0.00100022
0.00100022
0.00100022
0.00100022
0.00100022
0.00100022
0.00100022
0.00100022
0.00100022
0.00100022
0.00100022
0.00100022
0.00100022
0.00100022
0.00100022
0.00100022
0.00100022
0.00100022
0.00100022
0.00100022
0.00100022
0.00100022
0.00100022
0.00100022
0.00100022
0.00100022
0.00100022
0.00100022
0.00100022
0.00100022
0.00100022
0.00100022
0.00100022
0.00100022
0.00100022
0.00100022
0.00100022
0.00100022
0.00100022
0.00100022
0.00100022
0.00100022
0.00100022
0.00100022
0.00100022
0.00100022
0.00100022
0.00100022
0.00100022
0.00100022
0.00100022
0.00100022
0.00100023
0.00100023
0.00100025
0.00100025
0.00100022
0.00100021
0.0010002
0.00100022
0.00100022
0.00100022
0.00100022
0.00100022
0.00100022
0.00100022
0.00100022
0.00100022
0.00100022
0.00100022
0.00100022
0.00100022
0.00100022
0.00100022
0.00100022
0.00100022
0.00100022
0.00100022
0.00100022
0.00100022
0.00100022
0.00100022
0.00100022
0.00100022
0.00100022
0.00100022
0.00100022
0.00100022
0.00100022
0.00100022
0.00100022
0.00100022
0.00100022
0.00100022
0.00100022
0.00100022
0.00100022
0.00100022
0.00100022
0.00100022
0.00100022
0.00100022
0.00100022
0.00100022
0.00100022
0.00100022
0.00100022
0.00100022
0.00100022
0.00100022
0.00100022
0.00100022
0.00100022
0.00100022
0.00100022
0.00100022
0.00100022
0.00100022
0.00100022
0.00100022
0.00100022
0.00100022
0.00100022
0.00100022
0.00100022
0.00100022
0.00100022
0.00100022
0.00100022
0.00100022
0.00100022
0.00100023
0.00100022
0.00100022
0.00100022
0.00100022
0.00100023
0.00100023
0.00100022
0.00100022
0.00100022
0.00100022
0.00100022
0.00100024
0.00100023
0.00191027
0.00157664
0.00116112
0.00109003
0.00108228
0.00108372
0.00108474
0.00108684
0.00108811
0.00108943
0.0010909
0.00109222
0.0010932
0.00109398
0.00109451
0.00109491
0.00109565
0.00109656
0.00109734
0.00109778
0.00109804
0.00109827
0.00109871
0.00109947
0.00110025
0.00110085
0.00110082
0.00110014
0.0010995
0.00109826
0.00109621
0.00109574
0.00109732
0.00109979
0.00109963
0.00109771
0.00109663
0.00109659
0.00109691
0.00109639
0.0010948
0.00109414
0.00109438
0.00109401
0.0010926
0.00109081
0.00108982
0.00108893
0.00108796
0.00108713
0.0010867
0.00108579
0.00108446
0.00108305
0.00108138
0.00108057
0.00107953
0.00107771
0.0010768
0.00107673
0.00107644
0.00107538
0.001075
0.00107596
0.00107704
0.00107736
0.00107756
0.00107814
0.00107884
0.00107933
0.00107918
0.00107896
0.0010793
0.00107989
0.00107913
0.00107492
0.0010706
0.00106631
0.0010593
0.00105281
0.00104668
0.00104565
0.00105959
0.00108031
0.00110098
0.00114763
0.00121834
0.00127586
0.00135037
0.00146598
0.00168847
0.00159762
0.0013206
0.00124853
0.00109409
0.00107589
0.00102428
0.00102553
0.00101961
0.00101976
0.00101905
0.00102012
0.00101665
0.00101613
0.00101624
0.00101679
0.00102018
0.00102356
0.00102349
0.00102861
0.00103006
0.00104218
0.00103891
0.00102545
0.00102467
0.00101834
0.00101743
0.0010137
0.00101333
0.00101368
0.00101337
0.0010131
0.00101266
0.0010131
0.00101582
0.00101635
0.00102048
0.00102136
0.00103095
0.00102914
0.00101899
0.00101872
0.00101397
0.0010139
0.00101247
0.00101119
0.00101103
0.00101171
0.00101167
0.00101146
0.00101143
0.00101133
0.00101122
0.00101112
0.001011
0.00101088
0.00101078
0.00101066
0.00101054
0.00101043
0.00101031
0.00101019
0.00101007
0.00100995
0.00100984
0.00100972
0.0010096
0.00100948
0.00100936
0.00100923
0.00100912
0.001009
0.00100887
0.00100873
0.0010086
0.00100848
0.00100835
0.00100822
0.00100809
0.00100797
0.00100784
0.00100771
0.00100758
0.00100745
0.00100732
0.00100718
0.00100705
0.00100692
0.00100679
0.00100666
0.00100653
0.0010064
0.00100626
0.00100613
0.001006
0.00100588
0.00100575
0.00100563
0.0010055
0.00100537
0.00100525
0.00100512
0.001005
0.00100487
0.00100475
0.00100462
0.00100451
0.0010044
0.00100428
0.00100417
0.00100405
0.00100393
0.00100381
0.00100369
0.00100358
0.00100348
0.00100337
0.00100327
0.00100317
0.00100307
0.00100296
0.00100285
0.00100275
0.00100265
0.00100255
0.00100246
0.00100238
0.00100229
0.00100221
0.00100213
0.00100205
0.00100198
0.0010019
0.00100182
0.00100175
0.00100167
0.0010016
0.00100153
0.00100147
0.00100141
0.00100135
0.00100129
0.00100123
0.00100118
0.00100112
0.00100107
0.00100102
0.00100097
0.00100093
0.00100089
0.00100084
0.0010008
0.00100076
0.00100071
0.00100067
0.00100064
0.0010006
0.00100057
0.00100053
0.0010005
0.00100047
0.00100044
0.00100041
0.00100038
0.00100035
0.00100033
0.0010003
0.00100027
0.00100025
0.00100023
0.00100021
0.00100019
0.00100018
0.00100016
0.00100015
0.00100013
0.00100012
0.00100011
0.0010001
0.00100008
0.00100007
0.00100006
0.00100005
0.00100005
0.00100004
0.00100003
0.00100002
0.00100002
0.00100001
0.00100001
0.001
0.000999994
0.000999989
0.000999984
0.00099998
0.000999975
0.000999971
0.000999968
0.000999964
0.000999961
0.000999958
0.000999956
0.000999953
0.00099995
0.000999947
0.000999945
0.000999942
0.00099994
0.000999938
0.000999936
0.000999934
0.000999933
0.000999931
0.00099993
0.000999929
0.000999928
0.000999927
0.000999926
0.000999925
0.000999924
0.000999923
0.000999922
0.000999921
0.00099992
0.000999919
0.000999918
0.000999917
0.000999916
0.000999916
0.000999916
0.000999916
0.000999915
0.000999915
0.000999914
0.000999914
0.000999914
0.000999913
0.000999912
0.000999911
0.000999911
0.00099991
0.00099991
0.00099991
0.00099991
0.00099991
0.000999911
0.000999911
0.00099991
0.00099991
0.000999909
0.000999909
0.000999908
0.000999908
0.000999907
0.000999907
0.000999907
0.000999907
0.000999907
0.000999907
0.000999907
0.000999907
0.000999907
0.000999907
0.000999906
0.000999906
0.000999906
0.000999906
0.000999906
0.000999906
0.000999906
0.000999906
0.000999906
0.000999905
0.000999905
0.000999905
0.000999904
0.000999904
0.000999904
0.000999904
0.000999904
0.000999904
0.000999904
0.000999904
0.000999903
0.000999903
0.000999903
0.000999903
0.000999903
0.000999903
0.000999903
0.000999903
0.000999903
0.000999903
0.000999902
0.000999902
0.000999902
0.000999902
0.000999902
0.000999902
0.000999902
0.000999902
0.000999902
0.000999902
0.000999901
0.000999901
0.000999901
0.000999901
0.000999901
0.000999901
0.000999901
0.000999901
0.0009999
0.0009999
0.0009999
0.0009999
0.0009999
0.0009999
0.0009999
0.0009999
0.0009999
0.0009999
0.0009999
0.0009999
0.000999899
0.000999899
0.000999899
0.000999899
0.000999898
0.000999898
0.000999899
0.000999899
0.000999899
0.000999898
0.000999898
0.000999898
0.000999898
0.000999898
0.000999898
0.000999898
0.000999898
0.000999898
0.000999898
0.000999898
0.000999898
0.000999898
0.000999898
0.000999898
0.000999898
0.000999898
0.000999898
0.000999897
0.000999897
0.000999897
0.000999897
0.000999897
0.000999897
0.000999898
0.000999897
0.000999897
0.000999898
0.000999897
0.000999898
0.000999898
0.000999907
0.000999906
0.000999912
0.000999962
0.000999952
0.000999907
0.000999904
0.000999901
0.000999901
0.000999898
0.000999898
0.000999896
0.000999896
0.000999896
0.000999897
0.000999897
0.000999897
0.000999896
0.000999896
0.000999896
0.000999896
0.000999895
0.000999895
0.000999895
0.000999895
0.000999895
0.000999895
0.000999896
0.000999896
0.000999896
0.000999896
0.000999896
0.000999896
0.000999896
0.000999897
0.000999898
0.000999899
0.000999899
0.000999899
0.000999898
0.000999897
0.000999897
0.000999897
0.000999897
0.000999897
0.000999898
0.000999898
0.000999898
0.000999898
0.000999898
0.000999898
0.000999898
0.000999898
0.000999899
0.000999899
0.0009999
0.0009999
0.000999901
0.000999901
0.0009999
0.0009999
0.0009999
0.0009999
0.0009999
0.0009999
0.0009999
0.0009999
0.000999901
0.000999901
0.000999901
0.000999902
0.000999901
0.0009999
0.0009999
0.0009999
0.0009999
0.0009999
0.0009999
0.0009999
0.0009999
0.0009999
0.000999901
0.000999903
0.0009999
0.000999905
0.000999901
0.0009999
0.000999901
0.000999912
0.000999901
0.0009999
0.000999901
0.000999901
0.000999899
0.000999901
0.000999918
0.000999909
0.00199651
0.00159882
0.00116639
0.00109769
0.00109093
0.00109202
0.00109207
0.00109418
0.00109555