/*--------------------------------*- C++ -*----------------------------------*\
| =========                 |                                                 |
| \\      /  F ield         | OpenFOAM: The Open Source CFD Toolbox           |
|  \\    /   O peration     | Version:  v2006                                 |
|   \\  /    A nd           | Website:  www.openfoam.com                      |
|    \\/     M anipulation  |                                                 |
\*---------------------------------------------------------------------------*/
FoamFile
{
    version     2.0;
    format      ascii;
    class       volScalarField;
    location    "1.4";
    object      p;
}
// * * * * * * * * * * * * * * * * * * * * * * * * * * * * * * * * * * * * * //

dimensions      [1 -1 -2 0 0 0 0];


internalField   nonuniform List<scalar> 
33000
(
7694.66
7695.52
7696.55
7697.35
7698.14
7698.87
7699.55
7700.18
7700.75
7701.26
7701.73
7702.14
7702.5
7702.81
7703.07
7703.28
7703.44
7703.55
7703.61
7703.63
7703.6
7703.53
7703.41
7703.26
7703.06
7702.82
7702.54
7702.23
7701.88
7701.5
7701.08
7700.64
7700.17
7699.66
7699.13
7698.58
7698
7697.4
7696.78
7696.14
7695.48
7694.8
7694.12
7693.42
7692.7
7691.98
7691.25
7690.51
7689.77
7689.02
7688.26
7687.51
7686.75
7686
7685.24
7684.49
7683.74
7683
7682.26
7681.54
7680.82
7680.11
7679.42
7678.73
7678.06
7677.41
7676.77
7676.15
7675.55
7674.96
7674.39
7673.85
7673.33
7672.83
7672.37
7671.94
7671.55
7671.19
7670.73
7670.11
7669.73
7669.28
7668.84
7668.46
7668.06
7667.71
7667.38
7667.07
7666.77
7666.5
7666.25
7666.03
7665.83
7665.65
7665.49
7665.35
7665.22
7665.13
7664.95
7664.93
7665.05
7665.09
7665.19
7665.32
7665.46
7665.64
7665.85
7666.07
7666.32
7666.58
7666.85
7667.14
7667.45
7667.77
7668.08
7668.43
7668.68
7669.08
7669.64
7670.1
7670.6
7671.13
7671.67
7672.23
7672.82
7673.42
7674.03
7674.66
7675.3
7675.96
7676.62
7677.29
7677.98
7678.67
7679.37
7680.08
7680.79
7681.51
7682.23
7682.95
7683.68
7684.41
7685.14
7685.88
7686.61
7687.35
7688.08
7688.81
7689.55
7690.28
7691.01
7691.74
7692.47
7693.2
7693.93
7694.65
7695.38
7696.1
7696.82
7697.54
7698.26
7698.97
7699.68
7700.39
7701.1
7701.79
7702.49
7703.18
7703.86
7704.54
7705.21
7705.88
7706.54
7707.19
7707.84
7708.48
7709.11
7709.74
7710.36
7710.97
7711.57
7712.17
7712.76
7713.34
7713.91
7714.48
7715.03
7715.58
7716.12
7716.66
7717.18
7717.7
7718.21
7718.71
7719.21
7719.69
7720.17
7720.64
7721.1
7721.56
7722
7722.44
7722.87
7723.3
7723.72
7724.13
7724.53
7724.92
7725.31
7725.69
7726.07
7726.44
7726.8
7727.15
7727.5
7727.84
7728.17
7728.5
7728.82
7729.14
7729.45
7729.75
7730.05
7730.34
7730.62
7730.9
7731.18
7731.45
7731.71
7731.97
7732.22
7732.47
7732.71
7732.95
7733.18
7733.41
7733.63
7733.85
7734.06
7734.27
7734.47
7734.67
7734.87
7735.06
7735.25
7735.43
7735.61
7735.78
7735.95
7736.12
7736.29
7736.44
7736.6
7736.75
7736.9
7737.05
7737.19
7737.33
7737.47
7737.6
7737.73
7737.86
7737.98
7738.1
7738.22
7738.33
7738.45
7738.56
7738.66
7738.77
7738.87
7738.97
7739.07
7739.16
7739.25
7739.34
7739.43
7739.52
7739.6
7739.68
7739.76
7739.84
7739.91
7739.98
7740.05
7740.12
7740.19
7740.26
7740.32
7740.38
7740.44
7740.5
7740.56
7740.61
7740.66
7740.72
7740.77
7740.82
7740.86
7740.91
7740.96
7741
7741.04
7741.08
7741.12
7741.16
7741.2
7741.24
7741.27
7741.3
7741.34
7741.37
7741.4
7741.43
7741.46
7741.49
7741.52
7741.54
7741.57
7741.59
7741.62
7741.64
7741.66
7741.68
7741.7
7741.72
7741.74
7741.76
7741.78
7741.8
7741.82
7741.83
7741.85
7741.86
7741.88
7741.89
7741.9
7741.92
7741.93
7741.94
7741.95
7741.97
7741.98
7741.99
7742
7742.01
7742.02
7742.02
7742.03
7742.04
7742.05
7742.06
7742.06
7742.07
7742.08
7742.08
7742.09
7742.1
7742.1
7742.11
7742.11
7742.12
7742.12
7742.12
7742.13
7742.13
7742.14
7742.14
7742.14
7742.15
7742.15
7742.15
7742.16
7742.16
7742.16
7742.16
7742.17
7742.17
7742.17
7742.17
7742.17
7742.17
7742.18
7742.18
7742.18
7742.18
7742.18
7742.18
7742.18
7742.18
7742.18
7742.18
7742.18
7742.18
7742.18
7742.18
7742.18
7742.18
7742.18
7742.18
7742.18
7742.18
7742.18
7742.18
7742.18
7742.18
7742.18
7742.18
7742.18
7742.18
7742.18
7742.18
7742.18
7742.18
7742.18
7742.18
7742.18
7742.17
7742.17
7742.17
7742.17
7742.17
7742.17
7742.17
7742.17
7742.17
7742.17
7742.17
7742.17
7742.16
7742.16
7742.16
7742.16
7742.16
7742.16
7742.16
7742.16
7742.16
7742.16
7742.16
7742.15
7742.15
7742.15
7742.15
7742.15
7742.15
7742.15
7742.15
7742.15
7742.15
7742.15
7742.14
7742.14
7742.14
7742.14
7742.14
7742.14
7742.14
7742.14
7742.14
7742.14
7742.13
7742.13
7742.13
7742.13
7742.13
7742.13
7742.13
7742.13
7742.13
7742.13
7742.13
7742.13
7742.13
7742.12
7742.12
7742.12
7742.12
7742.12
7742.12
7742.12
7742.12
7742.12
7742.12
7742.12
7742.12
7742.12
7742.12
7742.12
7742.12
7742.12
7742.11
7742.11
7742.11
7742.11
7742.11
7742.11
7742.11
7742.11
7742.11
7742.11
7742.11
7742.11
7742.11
7742.11
7742.11
7742.11
7742.11
7742.11
7742.11
7742.11
7742.11
7742.1
7742.1
7742.1
7742.1
7742.1
7742.1
7742.1
7742.1
7742.1
7742.1
7742.1
7742.1
7742.1
7742.1
7742.1
7742.1
7742.1
7742.1
7742.1
7742.1
7742.1
7742.1
7742.1
7742.1
7742.09
7742.09
7742.09
7742.09
7742.09
7742.09
7742.09
7742.09
7742.09
7742.09
7742.09
7742.09
7742.09
7742.09
7498.55
7499.44
7500.48
7501.29
7502.08
7502.82
7503.5
7504.13
7504.7
7505.22
7505.68
7506.09
7506.45
7506.76
7507.02
7507.23
7507.39
7507.5
7507.57
7507.58
7507.56
7507.48
7507.37
7507.21
7507.01
7506.77
7506.49
7506.17
7505.82
7505.43
7505.01
7504.57
7504.09
7503.59
7503.05
7502.49
7501.9
7501.3
7500.67
7500.03
7499.36
7498.68
7497.98
7497.28
7496.56
7495.83
7495.09
7494.34
7493.59
7492.84
7492.08
7491.32
7490.57
7489.81
7489.05
7488.3
7487.56
7486.81
7486.08
7485.35
7484.63
7483.92
7483.23
7482.54
7481.87
7481.22
7480.58
7479.96
7479.35
7478.76
7478.19
7477.64
7477.12
7476.62
7476.14
7475.68
7475.25
7474.82
7474.39
7473.99
7473.61
7473.14
7472.58
7472.27
7471.91
7471.51
7471.19
7470.86
7470.55
7470.29
7470.05
7469.84
7469.63
7469.46
7469.3
7469.17
7469.06
7468.98
7468.91
7468.86
7468.87
7468.78
7468.87
7469.11
7469.26
7469.45
7469.65
7469.86
7470.09
7470.35
7470.64
7470.94
7471.26
7471.59
7471.93
7472.29
7472.65
7473.03
7473.45
7473.78
7474.27
7474.91
7475.46
7476.03
7476.61
7477.2
7477.81
7478.45
7479.09
7479.75
7480.41
7481.09
7481.77
7482.47
7483.17
7483.88
7484.59
7485.31
7486.03
7486.76
7487.49
7488.22
7488.95
7489.68
7490.42
7491.15
7491.89
7492.62
7493.36
7494.09
7494.82
7495.55
7496.28
7497.01
7497.74
7498.47
7499.19
7499.92
7500.64
7501.36
7502.08
7502.79
7503.5
7504.21
7504.91
7505.61
7506.31
7507
7507.68
7508.36
7509.03
7509.7
7510.36
7511.02
7511.66
7512.3
7512.94
7513.56
7514.18
7514.79
7515.4
7515.99
7516.58
7517.16
7517.73
7518.3
7518.86
7519.41
7519.95
7520.48
7521
7521.52
7522.03
7522.53
7523.03
7523.51
7523.99
7524.46
7524.92
7525.38
7525.82
7526.26
7526.69
7527.12
7527.54
7527.94
7528.35
7528.74
7529.13
7529.51
7529.89
7530.25
7530.61
7530.97
7531.31
7531.66
7531.99
7532.32
7532.64
7532.95
7533.26
7533.57
7533.86
7534.15
7534.44
7534.72
7534.99
7535.26
7535.52
7535.78
7536.03
7536.28
7536.52
7536.76
7536.99
7537.22
7537.44
7537.66
7537.87
7538.08
7538.28
7538.48
7538.68
7538.87
7539.06
7539.24
7539.42
7539.59
7539.77
7539.93
7540.1
7540.26
7540.41
7540.56
7540.71
7540.86
7541
7541.14
7541.28
7541.41
7541.54
7541.66
7541.79
7541.91
7542.03
7542.14
7542.25
7542.36
7542.47
7542.57
7542.68
7542.78
7542.87
7542.97
7543.06
7543.15
7543.24
7543.32
7543.4
7543.48
7543.56
7543.64
7543.71
7543.79
7543.86
7543.93
7543.99
7544.06
7544.12
7544.18
7544.24
7544.3
7544.36
7544.41
7544.47
7544.52
7544.57
7544.62
7544.67
7544.71
7544.76
7544.8
7544.84
7544.89
7544.93
7544.96
7545
7545.04
7545.07
7545.11
7545.14
7545.17
7545.2
7545.23
7545.26
7545.29
7545.32
7545.34
7545.37
7545.39
7545.42
7545.44
7545.46
7545.48
7545.51
7545.53
7545.54
7545.56
7545.58
7545.6
7545.62
7545.63
7545.65
7545.66
7545.68
7545.69
7545.7
7545.72
7545.73
7545.74
7545.75
7545.77
7545.78
7545.79
7545.8
7545.81
7545.82
7545.82
7545.83
7545.84
7545.85
7545.86
7545.86
7545.87
7545.88
7545.88
7545.89
7545.9
7545.9
7545.91
7545.91
7545.92
7545.92
7545.92
7545.93
7545.93
7545.94
7545.94
7545.94
7545.95
7545.95
7545.95
7545.96
7545.96
7545.96
7545.96
7545.97
7545.97
7545.97
7545.97
7545.97
7545.97
7545.98
7545.98
7545.98
7545.98
7545.98
7545.98
7545.98
7545.98
7545.98
7545.98
7545.98
7545.98
7545.98
7545.98
7545.98
7545.98
7545.98
7545.98
7545.98
7545.98
7545.98
7545.98
7545.98
7545.98
7545.98
7545.98
7545.98
7545.98
7545.98
7545.98
7545.98
7545.98
7545.98
7545.98
7545.98
7545.97
7545.97
7545.97
7545.97
7545.97
7545.97
7545.97
7545.97
7545.97
7545.97
7545.97
7545.97
7545.96
7545.96
7545.96
7545.96
7545.96
7545.96
7545.96
7545.96
7545.96
7545.96
7545.96
7545.95
7545.95
7545.95
7545.95
7545.95
7545.95
7545.95
7545.95
7545.95
7545.95
7545.95
7545.94
7545.94
7545.94
7545.94
7545.94
7545.94
7545.94
7545.94
7545.94
7545.94
7545.93
7545.93
7545.93
7545.93
7545.93
7545.93
7545.93
7545.93
7545.93
7545.93
7545.93
7545.93
7545.93
7545.92
7545.92
7545.92
7545.92
7545.92
7545.92
7545.92
7545.92
7545.92
7545.92
7545.92
7545.92
7545.92
7545.92
7545.92
7545.92
7545.92
7545.91
7545.91
7545.91
7545.91
7545.91
7545.91
7545.91
7545.91
7545.91
7545.91
7545.91
7545.91
7545.91
7545.91
7545.91
7545.91
7545.91
7545.91
7545.91
7545.91
7545.91
7545.9
7545.9
7545.9
7545.9
7545.9
7545.9
7545.9
7545.9
7545.9
7545.9
7545.9
7545.9
7545.9
7545.9
7545.9
7545.9
7545.9
7545.9
7545.9
7545.9
7545.9
7545.9
7545.9
7545.89
7545.89
7545.89
7545.89
7545.89
7545.89
7545.89
7545.89
7545.89
7545.89
7545.89
7545.89
7545.89
7545.89
7545.89
7302.59
7303.47
7304.52
7305.34
7306.13
7306.88
7307.57
7308.2
7308.77
7309.29
7309.76
7310.17
7310.53
7310.84
7311.09
7311.3
7311.45
7311.56
7311.62
7311.64
7311.61
7311.53
7311.41
7311.24
7311.04
7310.8
7310.51
7310.19
7309.83
7309.44
7309.01
7308.55
7308.07
7307.55
7307.01
7306.45
7305.85
7305.24
7304.6
7303.95
7303.28
7302.59
7301.88
7301.16
7300.44
7299.7
7298.95
7298.2
7297.44
7296.68
7295.92
7295.16
7294.39
7293.64
7292.88
7292.12
7291.37
7290.63
7289.89
7289.16
7288.44
7287.73
7287.02
7286.34
7285.66
7285
7284.35
7283.73
7283.12
7282.52
7281.95
7281.39
7280.86
7280.35
7279.85
7279.38
7278.92
7278.47
7278.04
7277.63
7277.22
7276.82
7276.44
7276.09
7275.63
7275.14
7274.9
7274.61
7274.36
7274.07
7273.83
7273.58
7273.39
7273.22
7273.08
7272.95
7272.85
7272.77
7272.72
7272.71
7272.73
7272.76
7272.81
7272.89
7272.89
7273.07
7273.38
7273.62
7273.88
7274.14
7274.42
7274.7
7275.02
7275.37
7275.72
7276.09
7276.47
7276.88
7277.32
7277.77
7278.23
7278.71
7279.11
7279.66
7280.36
7280.97
7281.6
7282.22
7282.85
7283.51
7284.18
7284.86
7285.55
7286.25
7286.95
7287.66
7288.37
7289.09
7289.82
7290.55
7291.28
7292.01
7292.75
7293.48
7294.22
7294.96
7295.7
7296.43
7297.17
7297.9
7298.64
7299.37
7300.1
7300.83
7301.56
7302.29
7303.02
7303.74
7304.47
7305.19
7305.9
7306.62
7307.33
7308.04
7308.74
7309.44
7310.14
7310.83
7311.52
7312.2
7312.87
7313.54
7314.2
7314.85
7315.5
7316.14
7316.78
7317.4
7318.02
7318.63
7319.24
7319.83
7320.42
7321
7321.58
7322.14
7322.7
7323.25
7323.79
7324.32
7324.85
7325.36
7325.87
7326.37
7326.87
7327.35
7327.83
7328.3
7328.76
7329.21
7329.66
7330.1
7330.53
7330.96
7331.37
7331.78
7332.18
7332.58
7332.97
7333.35
7333.72
7334.09
7334.45
7334.8
7335.15
7335.49
7335.82
7336.15
7336.47
7336.78
7337.09
7337.4
7337.69
7337.98
7338.27
7338.55
7338.82
7339.09
7339.35
7339.61
7339.86
7340.11
7340.35
7340.59
7340.82
7341.04
7341.27
7341.48
7341.7
7341.9
7342.11
7342.31
7342.5
7342.69
7342.88
7343.06
7343.24
7343.42
7343.59
7343.75
7343.92
7344.08
7344.23
7344.38
7344.53
7344.68
7344.82
7344.96
7345.09
7345.23
7345.36
7345.48
7345.6
7345.73
7345.84
7345.96
7346.07
7346.18
7346.28
7346.39
7346.49
7346.59
7346.69
7346.78
7346.87
7346.96
7347.05
7347.13
7347.22
7347.3
7347.37
7347.45
7347.53
7347.6
7347.67
7347.74
7347.8
7347.87
7347.93
7347.99
7348.05
7348.11
7348.17
7348.22
7348.28
7348.33
7348.38
7348.43
7348.47
7348.52
7348.56
7348.61
7348.65
7348.69
7348.73
7348.77
7348.81
7348.84
7348.88
7348.91
7348.94
7348.98
7349.01
7349.04
7349.07
7349.09
7349.12
7349.15
7349.17
7349.2
7349.22
7349.24
7349.27
7349.29
7349.31
7349.33
7349.35
7349.37
7349.38
7349.4
7349.42
7349.43
7349.45
7349.46
7349.48
7349.49
7349.51
7349.52
7349.53
7349.54
7349.56
7349.57
7349.58
7349.59
7349.6
7349.61
7349.62
7349.62
7349.63
7349.64
7349.65
7349.66
7349.66
7349.67
7349.68
7349.68
7349.69
7349.7
7349.7
7349.71
7349.71
7349.72
7349.72
7349.73
7349.73
7349.73
7349.74
7349.74
7349.74
7349.75
7349.75
7349.75
7349.76
7349.76
7349.76
7349.76
7349.77
7349.77
7349.77
7349.77
7349.77
7349.77
7349.78
7349.78
7349.78
7349.78
7349.78
7349.78
7349.78
7349.78
7349.78
7349.78
7349.78
7349.78
7349.78
7349.78
7349.78
7349.78
7349.78
7349.78
7349.78
7349.78
7349.78
7349.78
7349.78
7349.78
7349.78
7349.78
7349.78
7349.78
7349.78
7349.78
7349.78
7349.78
7349.78
7349.78
7349.78
7349.77
7349.77
7349.77
7349.77
7349.77
7349.77
7349.77
7349.77
7349.77
7349.77
7349.77
7349.77
7349.76
7349.76
7349.76
7349.76
7349.76
7349.76
7349.76
7349.76
7349.76
7349.76
7349.76
7349.75
7349.75
7349.75
7349.75
7349.75
7349.75
7349.75
7349.75
7349.75
7349.75
7349.75
7349.74
7349.74
7349.74
7349.74
7349.74
7349.74
7349.74
7349.74
7349.74
7349.74
7349.73
7349.73
7349.73
7349.73
7349.73
7349.73
7349.73
7349.73
7349.73
7349.73
7349.73
7349.73
7349.73
7349.73
7349.72
7349.72
7349.72
7349.72
7349.72
7349.72
7349.72
7349.72
7349.72
7349.72
7349.72
7349.72
7349.72
7349.72
7349.72
7349.72
7349.71
7349.71
7349.71
7349.71
7349.71
7349.71
7349.71
7349.71
7349.71
7349.71
7349.71
7349.71
7349.71
7349.71
7349.71
7349.71
7349.71
7349.71
7349.71
7349.71
7349.7
7349.7
7349.7
7349.7
7349.7
7349.7
7349.7
7349.7
7349.7
7349.7
7349.7
7349.7
7349.7
7349.7
7349.7
7349.7
7349.7
7349.7
7349.7
7349.7
7349.7
7349.7
7349.7
7349.69
7349.69
7349.69
7349.69
7349.69
7349.69
7349.69
7349.69
7349.69
7349.69
7349.69
7349.69
7349.69
7349.69
7349.69
7349.69
7106.9
7107.78
7108.83
7109.61
7110.41
7111.14
7111.82
7112.44
7113
7113.51
7113.97
7114.37
7114.72
7115.02
7115.27
7115.46
7115.61
7115.71
7115.76
7115.77
7115.73
7115.64
7115.51
7115.34
7115.13
7114.87
7114.58
7114.25
7113.88
7113.48
7113.05
7112.58
7112.08
7111.55
7111
7110.42
7109.82
7109.2
7108.55
7107.89
7107.2
7106.51
7105.79
7105.06
7104.33
7103.58
7102.83
7102.07
7101.31
7100.54
7099.77
7099
7098.23
7097.46
7096.7
7095.94
7095.18
7094.43
7093.69
7092.95
7092.22
7091.5
7090.8
7090.1
7089.42
7088.75
7088.1
7087.46
7086.84
7086.24
7085.65
7085.09
7084.54
7084.02
7083.51
7083.03
7082.56
7082.1
7081.66
7081.23
7080.82
7080.42
7080.05
7079.68
7079.31
7078.97
7078.66
7078.38
7078
7077.67
7077.52
7077.34
7077.1
7076.95
7076.77
7076.67
7076.59
7076.54
7076.49
7076.48
7076.49
7076.53
7076.61
7076.72
7076.85
7077
7077.15
7077.34
7077.44
7077.7
7078.11
7078.43
7078.77
7079.11
7079.46
7079.85
7080.25
7080.67
7081.12
7081.57
7082.05
7082.56
7083.08
7083.6
7084.14
7084.6
7085.2
7085.95
7086.6
7087.27
7087.94
7088.61
7089.3
7090.01
7090.72
7091.43
7092.15
7092.87
7093.6
7094.33
7095.06
7095.8
7096.54
7097.28
7098.02
7098.76
7099.5
7100.24
7100.98
7101.72
7102.46
7103.2
7103.93
7104.67
7105.4
7106.13
7106.86
7107.59
7108.31
7109.03
7109.75
7110.47
7111.18
7111.89
7112.6
7113.3
7114
7114.69
7115.37
7116.05
7116.73
7117.4
7118.06
7118.71
7119.36
7120.01
7120.64
7121.27
7121.89
7122.5
7123.1
7123.7
7124.29
7124.87
7125.44
7126.01
7126.56
7127.11
7127.65
7128.19
7128.71
7129.23
7129.74
7130.24
7130.73
7131.22
7131.69
7132.16
7132.63
7133.08
7133.53
7133.96
7134.39
7134.82
7135.23
7135.64
7136.04
7136.44
7136.83
7137.21
7137.58
7137.95
7138.3
7138.66
7139
7139.34
7139.68
7140
7140.32
7140.64
7140.94
7141.25
7141.54
7141.83
7142.12
7142.4
7142.67
7142.94
7143.2
7143.45
7143.71
7143.95
7144.19
7144.43
7144.66
7144.89
7145.11
7145.32
7145.54
7145.74
7145.95
7146.15
7146.34
7146.53
7146.72
7146.9
7147.08
7147.25
7147.42
7147.59
7147.75
7147.91
7148.06
7148.22
7148.36
7148.51
7148.65
7148.79
7148.92
7149.05
7149.18
7149.31
7149.43
7149.55
7149.67
7149.78
7149.89
7150
7150.11
7150.21
7150.31
7150.41
7150.51
7150.6
7150.69
7150.78
7150.87
7150.95
7151.03
7151.11
7151.19
7151.27
7151.34
7151.41
7151.48
7151.55
7151.62
7151.68
7151.75
7151.81
7151.87
7151.92
7151.98
7152.03
7152.09
7152.14
7152.19
7152.24
7152.29
7152.33
7152.38
7152.42
7152.46
7152.5
7152.54
7152.58
7152.62
7152.65
7152.69
7152.72
7152.75
7152.78
7152.81
7152.84
7152.87
7152.9
7152.93
7152.95
7152.98
7153
7153.03
7153.05
7153.07
7153.09
7153.11
7153.13
7153.15
7153.17
7153.19
7153.2
7153.22
7153.24
7153.25
7153.27
7153.28
7153.3
7153.31
7153.32
7153.33
7153.35
7153.36
7153.37
7153.38
7153.39
7153.4
7153.41
7153.42
7153.43
7153.44
7153.44
7153.45
7153.46
7153.47
7153.47
7153.48
7153.48
7153.49
7153.5
7153.5
7153.51
7153.51
7153.52
7153.52
7153.53
7153.53
7153.53
7153.54
7153.54
7153.54
7153.55
7153.55
7153.55
7153.56
7153.56
7153.56
7153.56
7153.57
7153.57
7153.57
7153.57
7153.57
7153.57
7153.58
7153.58
7153.58
7153.58
7153.58
7153.58
7153.58
7153.58
7153.58
7153.58
7153.58
7153.58
7153.58
7153.58
7153.58
7153.58
7153.58
7153.58
7153.58
7153.58
7153.58
7153.58
7153.58
7153.58
7153.58
7153.58
7153.58
7153.58
7153.58
7153.58
7153.58
7153.58
7153.58
7153.58
7153.58
7153.57
7153.57
7153.57
7153.57
7153.57
7153.57
7153.57
7153.57
7153.57
7153.57
7153.57
7153.57
7153.56
7153.56
7153.56
7153.56
7153.56
7153.56
7153.56
7153.56
7153.56
7153.56
7153.56
7153.55
7153.55
7153.55
7153.55
7153.55
7153.55
7153.55
7153.55
7153.55
7153.55
7153.55
7153.54
7153.54
7153.54
7153.54
7153.54
7153.54
7153.54
7153.54
7153.54
7153.54
7153.53
7153.53
7153.53
7153.53
7153.53
7153.53
7153.53
7153.53
7153.53
7153.53
7153.53
7153.53
7153.53
7153.53
7153.52
7153.52
7153.52
7153.52
7153.52
7153.52
7153.52
7153.52
7153.52
7153.52
7153.52
7153.52
7153.52
7153.52
7153.52
7153.52
7153.51
7153.51
7153.51
7153.51
7153.51
7153.51
7153.51
7153.51
7153.51
7153.51
7153.51
7153.51
7153.51
7153.51
7153.51
7153.51
7153.51
7153.51
7153.51
7153.51
7153.5
7153.5
7153.5
7153.5
7153.5
7153.5
7153.5
7153.5
7153.5
7153.5
7153.5
7153.5
7153.5
7153.5
7153.5
7153.5
7153.5
7153.5
7153.5
7153.5
7153.5
7153.5
7153.49
7153.49
7153.49
7153.49
7153.49
7153.49
7153.49
7153.49
7153.49
7153.49
7153.49
7153.49
7153.49
7153.49
7153.49
7153.49
7153.49
6911.27
6912.16
6913.23
6913.99
6914.79
6915.52
6916.18
6916.8
6917.35
6917.85
6918.3
6918.69
6919.03
6919.32
6919.55
6919.74
6919.88
6919.96
6920
6919.99
6919.94
6919.84
6919.69
6919.51
6919.28
6919.01
6918.71
6918.36
6917.98
6917.57
6917.12
6916.64
6916.13
6915.58
6915.01
6914.42
6913.8
6913.16
6912.5
6911.82
6911.13
6910.42
6909.69
6908.96
6908.21
6907.46
6906.69
6905.92
6905.15
6904.37
6903.59
6902.81
6902.03
6901.25
6900.48
6899.71
6898.95
6898.19
6897.44
6896.69
6895.96
6895.23
6894.52
6893.82
6893.13
6892.45
6891.79
6891.14
6890.51
6889.9
6889.31
6888.74
6888.18
6887.65
6887.13
6886.64
6886.16
6885.7
6885.26
6884.83
6884.41
6884.02
6883.63
6883.27
6882.92
6882.61
6882.31
6882.03
6881.75
6881.5
6881.25
6880.92
6880.69
6880.62
6880.54
6880.37
6880.3
6880.21
6880.19
6880.2
6880.24
6880.28
6880.35
6880.45
6880.57
6880.73
6880.93
6881.13
6881.35
6881.58
6881.83
6882
6882.32
6882.8
6883.18
6883.58
6883.99
6884.42
6884.87
6885.35
6885.83
6886.34
6886.86
6887.4
6887.97
6888.54
6889.12
6889.71
6890.22
6890.87
6891.66
6892.35
6893.05
6893.76
6894.46
6895.17
6895.89
6896.62
6897.35
6898.09
6898.83
6899.57
6900.31
6901.06
6901.81
6902.55
6903.3
6904.05
6904.79
6905.54
6906.28
6907.02
6907.76
6908.5
6909.24
6909.97
6910.7
6911.43
6912.16
6912.89
6913.61
6914.33
6915.04
6915.75
6916.46
6917.16
6917.86
6918.55
6919.24
6919.92
6920.6
6921.27
6921.93
6922.59
6923.24
6923.88
6924.52
6925.15
6925.77
6926.38
6926.98
6927.58
6928.17
6928.75
6929.33
6929.89
6930.45
6931
6931.54
6932.07
6932.6
6933.11
6933.62
6934.12
6934.62
6935.1
6935.58
6936.05
6936.51
6936.96
6937.41
6937.84
6938.27
6938.7
6939.11
6939.52
6939.92
6940.32
6940.7
6941.08
6941.45
6941.82
6942.18
6942.53
6942.88
6943.21
6943.55
6943.87
6944.19
6944.5
6944.81
6945.11
6945.41
6945.7
6945.98
6946.26
6946.53
6946.8
6947.06
6947.31
6947.56
6947.81
6948.05
6948.29
6948.52
6948.74
6948.96
6949.18
6949.39
6949.6
6949.8
6950
6950.19
6950.38
6950.56
6950.75
6950.92
6951.1
6951.27
6951.43
6951.59
6951.75
6951.9
6952.06
6952.2
6952.35
6952.49
6952.63
6952.76
6952.89
6953.02
6953.14
6953.27
6953.38
6953.5
6953.61
6953.73
6953.83
6953.94
6954.04
6954.14
6954.24
6954.33
6954.43
6954.52
6954.61
6954.69
6954.78
6954.86
6954.94
6955.02
6955.09
6955.16
6955.24
6955.31
6955.37
6955.44
6955.5
6955.57
6955.63
6955.68
6955.74
6955.8
6955.85
6955.9
6955.96
6956
6956.05
6956.1
6956.15
6956.19
6956.23
6956.27
6956.31
6956.35
6956.39
6956.43
6956.46
6956.5
6956.53
6956.56
6956.59
6956.62
6956.65
6956.68
6956.71
6956.74
6956.76
6956.79
6956.81
6956.83
6956.86
6956.88
6956.9
6956.92
6956.94
6956.96
6956.98
6956.99
6957.01
6957.03
6957.04
6957.06
6957.07
6957.09
6957.1
6957.11
6957.13
6957.14
6957.15
6957.16
6957.17
6957.18
6957.19
6957.2
6957.21
6957.22
6957.23
6957.24
6957.25
6957.25
6957.26
6957.27
6957.27
6957.28
6957.29
6957.29
6957.3
6957.3
6957.31
6957.31
6957.32
6957.32
6957.33
6957.33
6957.34
6957.34
6957.34
6957.35
6957.35
6957.35
6957.35
6957.36
6957.36
6957.36
6957.36
6957.37
6957.37
6957.37
6957.37
6957.37
6957.37
6957.38
6957.38
6957.38
6957.38
6957.38
6957.38
6957.38
6957.38
6957.38
6957.38
6957.38
6957.38
6957.38
6957.38
6957.38
6957.38
6957.38
6957.38
6957.38
6957.38
6957.38
6957.38
6957.38
6957.38
6957.38
6957.38
6957.38
6957.38
6957.38
6957.38
6957.38
6957.38
6957.38
6957.38
6957.38
6957.37
6957.37
6957.37
6957.37
6957.37
6957.37
6957.37
6957.37
6957.37
6957.37
6957.37
6957.37
6957.36
6957.36
6957.36
6957.36
6957.36
6957.36
6957.36
6957.36
6957.36
6957.36
6957.36
6957.35
6957.35
6957.35
6957.35
6957.35
6957.35
6957.35
6957.35
6957.35
6957.35
6957.34
6957.34
6957.34
6957.34
6957.34
6957.34
6957.34
6957.34
6957.34
6957.34
6957.34
6957.33
6957.33
6957.33
6957.33
6957.33
6957.33
6957.33
6957.33
6957.33
6957.33
6957.33
6957.33
6957.33
6957.33
6957.32
6957.32
6957.32
6957.32
6957.32
6957.32
6957.32
6957.32
6957.32
6957.32
6957.32
6957.32
6957.32
6957.32
6957.32
6957.32
6957.31
6957.31
6957.31
6957.31
6957.31
6957.31
6957.31
6957.31
6957.31
6957.31
6957.31
6957.31
6957.31
6957.31
6957.31
6957.31
6957.31
6957.31
6957.31
6957.3
6957.3
6957.3
6957.3
6957.3
6957.3
6957.3
6957.3
6957.3
6957.3
6957.3
6957.3
6957.3
6957.3
6957.3
6957.3
6957.3
6957.3
6957.3
6957.3
6957.3
6957.3
6957.29
6957.29
6957.29
6957.29
6957.29
6957.29
6957.29
6957.29
6957.29
6957.29
6957.29
6957.29
6957.29
6957.29
6957.29
6957.29
6957.29
6957.29
6715.8
6716.7
6717.85
6718.51
6719.34
6720.05
6720.71
6721.31
6721.85
6722.34
6722.78
6723.16
6723.49
6723.76
6723.98
6724.15
6724.27
6724.34
6724.36
6724.33
6724.26
6724.14
6723.97
6723.77
6723.52
6723.23
6722.9
6722.54
6722.14
6721.71
6721.24
6720.74
6720.21
6719.65
6719.06
6718.44
6717.81
6717.15
6716.47
6715.77
6715.06
6714.33
6713.59
6712.83
6712.07
6711.3
6710.52
6709.74
6708.95
6708.16
6707.36
6706.57
6705.78
6704.99
6704.2
6703.42
6702.65
6701.88
6701.12
6700.37
6699.63
6698.89
6698.17
6697.47
6696.77
6696.09
6695.42
6694.77
6694.13
6693.52
6692.92
6692.35
6691.78
6691.24
6690.72
6690.22
6689.74
6689.27
6688.83
6688.4
6687.99
6687.6
6687.22
6686.86
6686.52
6686.2
6685.9
6685.62
6685.36
6685.12
6684.9
6684.69
6684.5
6684.31
6684.03
6683.92
6683.94
6683.95
6683.87
6683.88
6683.87
6683.94
6684.04
6684.16
6684.29
6684.45
6684.62
6684.83
6685.05
6685.3
6685.59
6685.87
6686.17
6686.49
6686.73
6687.12
6687.66
6688.11
6688.58
6689.06
6689.55
6690.06
6690.6
6691.15
6691.71
6692.28
6692.88
6693.5
6694.12
6694.75
6695.39
6695.94
6696.64
6697.45
6698.17
6698.9
6699.61
6700.34
6701.07
6701.81
6702.56
6703.3
6704.06
6704.81
6705.56
6706.31
6707.07
6707.82
6708.57
6709.32
6710.07
6710.82
6711.57
6712.31
6713.06
6713.8
6714.53
6715.27
6716
6716.73
6717.45
6718.17
6718.89
6719.61
6720.31
6721.02
6721.72
6722.42
6723.1
6723.79
6724.47
6725.14
6725.8
6726.46
6727.11
6727.76
6728.39
6729.02
6729.65
6730.26
6730.87
6731.46
6732.05
6732.64
6733.21
6733.78
6734.34
6734.89
6735.43
6735.96
6736.49
6737
6737.51
6738.01
6738.5
6738.99
6739.47
6739.94
6740.4
6740.85
6741.3
6741.73
6742.16
6742.59
6743
6743.41
6743.81
6744.2
6744.59
6744.97
6745.34
6745.7
6746.06
6746.41
6746.76
6747.09
6747.43
6747.75
6748.07
6748.38
6748.69
6748.99
6749.28
6749.57
6749.85
6750.13
6750.4
6750.67
6750.93
6751.18
6751.43
6751.68
6751.92
6752.15
6752.38
6752.6
6752.82
6753.04
6753.25
6753.46
6753.66
6753.86
6754.05
6754.24
6754.42
6754.6
6754.78
6754.95
6755.12
6755.28
6755.44
6755.6
6755.76
6755.91
6756.05
6756.2
6756.33
6756.47
6756.61
6756.74
6756.86
6756.99
6757.11
6757.23
6757.34
6757.45
6757.56
6757.67
6757.78
6757.88
6757.98
6758.08
6758.17
6758.26
6758.35
6758.44
6758.52
6758.61
6758.69
6758.77
6758.84
6758.92
6758.99
6759.06
6759.13
6759.2
6759.26
6759.33
6759.39
6759.45
6759.51
6759.56
6759.62
6759.67
6759.72
6759.78
6759.82
6759.87
6759.92
6759.96
6760.01
6760.05
6760.09
6760.13
6760.17
6760.21
6760.24
6760.28
6760.31
6760.34
6760.38
6760.41
6760.44
6760.47
6760.49
6760.52
6760.55
6760.57
6760.6
6760.62
6760.64
6760.67
6760.69
6760.71
6760.73
6760.75
6760.77
6760.78
6760.8
6760.82
6760.83
6760.85
6760.86
6760.88
6760.89
6760.91
6760.92
6760.93
6760.94
6760.95
6760.97
6760.98
6760.99
6761
6761.01
6761.02
6761.02
6761.03
6761.04
6761.05
6761.06
6761.06
6761.07
6761.08
6761.08
6761.09
6761.1
6761.1
6761.11
6761.11
6761.12
6761.12
6761.12
6761.13
6761.13
6761.14
6761.14
6761.14
6761.15
6761.15
6761.15
6761.16
6761.16
6761.16
6761.16
6761.17
6761.17
6761.17
6761.17
6761.17
6761.17
6761.18
6761.18
6761.18
6761.18
6761.18
6761.18
6761.18
6761.18
6761.18
6761.18
6761.18
6761.18
6761.18
6761.18
6761.18
6761.18
6761.18
6761.18
6761.18
6761.18
6761.18
6761.18
6761.18
6761.18
6761.18
6761.18
6761.18
6761.18
6761.18
6761.18
6761.18
6761.18
6761.18
6761.18
6761.18
6761.18
6761.17
6761.17
6761.17
6761.17
6761.17
6761.17
6761.17
6761.17
6761.17
6761.17
6761.17
6761.17
6761.16
6761.16
6761.16
6761.16
6761.16
6761.16
6761.16
6761.16
6761.16
6761.16
6761.16
6761.15
6761.15
6761.15
6761.15
6761.15
6761.15
6761.15
6761.15
6761.15
6761.15
6761.14
6761.14
6761.14
6761.14
6761.14
6761.14
6761.14
6761.14
6761.14
6761.14
6761.14
6761.14
6761.13
6761.13
6761.13
6761.13
6761.13
6761.13
6761.13
6761.13
6761.13
6761.13
6761.13
6761.13
6761.13
6761.13
6761.12
6761.12
6761.12
6761.12
6761.12
6761.12
6761.12
6761.12
6761.12
6761.12
6761.12
6761.12
6761.12
6761.12
6761.12
6761.11
6761.11
6761.11
6761.11
6761.11
6761.11
6761.11
6761.11
6761.11
6761.11
6761.11
6761.11
6761.11
6761.11
6761.11
6761.11
6761.11
6761.11
6761.1
6761.1
6761.1
6761.1
6761.1
6761.1
6761.1
6761.1
6761.1
6761.1
6761.1
6761.1
6761.1
6761.1
6761.1
6761.1
6761.1
6761.1
6761.1
6761.1
6761.1
6761.1
6761.09
6761.09
6761.09
6761.09
6761.09
6761.09
6761.09
6761.09
6761.09
6761.09
6761.09
6761.09
6761.09
6761.09
6761.09
6761.09
6761.09
6761.09
6761.09
6520.51
6521.39
6522.61
6523.2
6524.01
6524.73
6525.39
6525.98
6526.52
6527
6527.43
6527.8
6528.11
6528.36
6528.57
6528.72
6528.82
6528.87
6528.86
6528.81
6528.71
6528.57
6528.38
6528.15
6527.88
6527.56
6527.21
6526.82
6526.39
6525.93
6525.44
6524.92
6524.36
6523.78
6523.17
6522.53
6521.87
6521.19
6520.48
6519.76
6519.02
6518.27
6517.51
6516.73
6515.95
6515.15
6514.35
6513.55
6512.74
6511.93
6511.12
6510.31
6509.5
6508.69
6507.89
6507.09
6506.31
6505.53
6504.76
6504
6503.25
6502.51
6501.78
6501.06
6500.36
6499.67
6499
6498.34
6497.71
6497.08
6496.48
6495.9
6495.34
6494.79
6494.27
6493.76
6493.28
6492.81
6492.37
6491.94
6491.53
6491.14
6490.77
6490.41
6490.08
6489.76
6489.47
6489.19
6488.93
6488.7
6488.48
6488.29
6488.12
6487.96
6487.82
6487.69
6487.56
6487.34
6487.34
6487.46
6487.56
6487.56
6487.65
6487.72
6487.89
6488.07
6488.27
6488.48
6488.71
6488.96
6489.23
6489.53
6489.85
6490.21
6490.56
6490.93
6491.32
6491.63
6492.09
6492.7
6493.21
6493.74
6494.28
6494.83
6495.41
6496
6496.6
6497.22
6497.84
6498.49
6499.16
6499.82
6500.5
6501.18
6501.86
6502.46
6503.18
6504.01
6504.76
6505.51
6506.26
6507.01
6507.76
6508.53
6509.29
6510.05
6510.82
6511.58
6512.34
6513.1
6513.86
6514.61
6515.37
6516.12
6516.87
6517.61
6518.36
6519.1
6519.83
6520.57
6521.29
6522.02
6522.74
6523.46
6524.17
6524.88
6525.58
6526.28
6526.97
6527.66
6528.34
6529.01
6529.68
6530.34
6530.99
6531.64
6532.28
6532.91
6533.53
6534.15
6534.76
6535.36
6535.95
6536.53
6537.11
6537.68
6538.23
6538.79
6539.33
6539.86
6540.39
6540.91
6541.41
6541.92
6542.41
6542.89
6543.37
6543.84
6544.3
6544.75
6545.2
6545.64
6546.07
6546.49
6546.9
6547.31
6547.71
6548.1
6548.49
6548.87
6549.24
6549.6
6549.96
6550.31
6550.65
6550.99
6551.32
6551.65
6551.96
6552.27
6552.58
6552.88
6553.17
6553.46
6553.74
6554.02
6554.29
6554.55
6554.81
6555.07
6555.32
6555.56
6555.8
6556.03
6556.26
6556.48
6556.7
6556.92
6557.12
6557.33
6557.53
6557.73
6557.92
6558.11
6558.29
6558.47
6558.65
6558.82
6558.98
6559.15
6559.31
6559.46
6559.62
6559.77
6559.91
6560.05
6560.19
6560.33
6560.46
6560.59
6560.72
6560.84
6560.96
6561.08
6561.19
6561.3
6561.41
6561.52
6561.62
6561.72
6561.82
6561.92
6562.01
6562.1
6562.19
6562.28
6562.36
6562.45
6562.53
6562.6
6562.68
6562.75
6562.83
6562.9
6562.96
6563.03
6563.09
6563.16
6563.22
6563.28
6563.34
6563.39
6563.45
6563.5
6563.55
6563.6
6563.65
6563.7
6563.74
6563.79
6563.83
6563.87
6563.91
6563.95
6563.99
6564.02
6564.06
6564.09
6564.13
6564.16
6564.19
6564.22
6564.25
6564.28
6564.31
6564.33
6564.36
6564.38
6564.41
6564.43
6564.45
6564.48
6564.5
6564.52
6564.54
6564.56
6564.57
6564.59
6564.61
6564.63
6564.64
6564.66
6564.67
6564.69
6564.7
6564.71
6564.73
6564.74
6564.75
6564.76
6564.77
6564.78
6564.79
6564.8
6564.81
6564.82
6564.83
6564.84
6564.85
6564.85
6564.86
6564.87
6564.87
6564.88
6564.89
6564.89
6564.9
6564.9
6564.91
6564.91
6564.92
6564.92
6564.93
6564.93
6564.94
6564.94
6564.94
6564.95
6564.95
6564.95
6564.95
6564.96
6564.96
6564.96
6564.96
6564.97
6564.97
6564.97
6564.97
6564.97
6564.97
6564.98
6564.98
6564.98
6564.98
6564.98
6564.98
6564.98
6564.98
6564.98
6564.98
6564.98
6564.98
6564.98
6564.98
6564.98
6564.98
6564.98
6564.98
6564.98
6564.98