/*--------------------------------*- C++ -*----------------------------------*\
| =========                 |                                                 |
| \\      /  F ield         | OpenFOAM: The Open Source CFD Toolbox           |
|  \\    /   O peration     | Version:  v2006                                 |
|   \\  /    A nd           | Website:  www.openfoam.com                      |
|    \\/     M anipulation  |                                                 |
\*---------------------------------------------------------------------------*/
FoamFile
{
    version     2.0;
    format      ascii;
    class       volScalarField;
    location    "1.4";
    object      p_rgh;
}
// * * * * * * * * * * * * * * * * * * * * * * * * * * * * * * * * * * * * * //

dimensions      [1 -1 -2 0 0 0 0];


internalField   nonuniform List<scalar> 
33000
(
7792.73
7793.52
7794.55
7795.38
7796.18
7796.92
7797.61
7798.24
7798.82
7799.34
7799.81
7800.22
7800.58
7800.89
7801.15
7801.36
7801.52
7801.63
7801.69
7801.71
7801.68
7801.6
7801.49
7801.34
7801.13
7800.89
7800.62
7800.31
7799.96
7799.57
7799.16
7798.72
7798.24
7797.74
7797.2
7796.64
7796.07
7795.48
7794.86
7794.21
7793.56
7792.88
7792.2
7791.5
7790.79
7790.07
7789.34
7788.6
7787.86
7787.11
7786.36
7785.6
7784.85
7784.09
7783.34
7782.58
7781.83
7781.09
7780.35
7779.62
7778.91
7778.2
7777.5
7776.82
7776.15
7775.5
7774.86
7774.24
7773.63
7773.04
7772.47
7771.93
7771.41
7770.91
7770.45
7770.02
7769.64
7769.27
7768.8
7768.18
7767.81
7767.37
7766.93
7766.54
7766.14
7765.79
7765.47
7765.16
7764.86
7764.58
7764.34
7764.12
7763.92
7763.73
7763.57
7763.44
7763.3
7763.22
7763.04
7763.02
7763.14
7763.18
7763.28
7763.41
7763.55
7763.73
7763.94
7764.16
7764.41
7764.66
7764.94
7765.23
7765.54
7765.86
7766.17
7766.52
7766.77
7767.17
7767.73
7768.19
7768.69
7769.22
7769.76
7770.32
7770.91
7771.51
7772.12
7772.75
7773.39
7774.05
7774.71
7775.39
7776.07
7776.76
7777.46
7778.17
7778.88
7779.6
7780.32
7781.05
7781.77
7782.5
7783.24
7783.97
7784.7
7785.44
7786.17
7786.91
7787.64
7788.37
7789.1
7789.83
7790.56
7791.29
7792.02
7792.75
7793.47
7794.2
7794.92
7795.64
7796.35
7797.07
7797.78
7798.49
7799.19
7799.89
7800.58
7801.27
7801.96
7802.64
7803.31
7803.98
7804.64
7805.29
7805.94
7806.58
7807.21
7807.84
7808.46
7809.07
7809.67
7810.27
7810.86
7811.44
7812.01
7812.57
7813.13
7813.68
7814.22
7814.76
7815.28
7815.8
7816.31
7816.81
7817.3
7817.79
7818.27
7818.74
7819.2
7819.65
7820.1
7820.54
7820.97
7821.4
7821.81
7822.22
7822.63
7823.02
7823.41
7823.79
7824.17
7824.54
7824.9
7825.25
7825.6
7825.94
7826.27
7826.6
7826.92
7827.24
7827.55
7827.85
7828.15
7828.44
7828.72
7829
7829.28
7829.55
7829.81
7830.07
7830.32
7830.57
7830.81
7831.05
7831.28
7831.5
7831.73
7831.95
7832.16
7832.37
7832.57
7832.77
7832.97
7833.16
7833.35
7833.53
7833.71
7833.88
7834.05
7834.22
7834.38
7834.54
7834.7
7834.85
7835
7835.15
7835.29
7835.43
7835.57
7835.7
7835.83
7835.96
7836.08
7836.2
7836.32
7836.43
7836.55
7836.66
7836.76
7836.87
7836.97
7837.07
7837.17
7837.26
7837.35
7837.44
7837.53
7837.62
7837.7
7837.78
7837.86
7837.94
7838.01
7838.08
7838.15
7838.22
7838.29
7838.36
7838.42
7838.48
7838.54
7838.6
7838.66
7838.71
7838.76
7838.82
7838.87
7838.92
7838.96
7839.01
7839.06
7839.1
7839.14
7839.18
7839.22
7839.26
7839.3
7839.34
7839.37
7839.41
7839.44
7839.47
7839.5
7839.53
7839.56
7839.59
7839.62
7839.64
7839.67
7839.69
7839.72
7839.74
7839.76
7839.78
7839.8
7839.82
7839.84
7839.86
7839.88
7839.9
7839.92
7839.93
7839.95
7839.96
7839.98
7839.99
7840.01
7840.02
7840.03
7840.04
7840.05
7840.07
7840.08
7840.09
7840.1
7840.11
7840.12
7840.12
7840.13
7840.14
7840.15
7840.16
7840.16
7840.17
7840.18
7840.18
7840.19
7840.2
7840.2
7840.21
7840.21
7840.22
7840.22
7840.23
7840.23
7840.23
7840.24
7840.24
7840.24
7840.25
7840.25
7840.25
7840.26
7840.26
7840.26
7840.26
7840.27
7840.27
7840.27
7840.27
7840.27
7840.27
7840.28
7840.28
7840.28
7840.28
7840.28
7840.28
7840.28
7840.28
7840.28
7840.28
7840.28
7840.28
7840.28
7840.28
7840.28
7840.28
7840.28
7840.28
7840.28
7840.28
7840.28
7840.28
7840.28
7840.28
7840.28
7840.28
7840.28
7840.28
7840.28
7840.28
7840.28
7840.28
7840.28
7840.28
7840.28
7840.27
7840.27
7840.27
7840.27
7840.27
7840.27
7840.27
7840.27
7840.27
7840.27
7840.27
7840.27
7840.26
7840.26
7840.26
7840.26
7840.26
7840.26
7840.26
7840.26
7840.26
7840.26
7840.26
7840.25
7840.25
7840.25
7840.25
7840.25
7840.25
7840.25
7840.25
7840.25
7840.25
7840.25
7840.24
7840.24
7840.24
7840.24
7840.24
7840.24
7840.24
7840.24
7840.24
7840.24
7840.23
7840.23
7840.23
7840.23
7840.23
7840.23
7840.23
7840.23
7840.23
7840.23
7840.23
7840.23
7840.22
7840.22
7840.22
7840.22
7840.22
7840.22
7840.22
7840.22
7840.22
7840.22
7840.22
7840.22
7840.22
7840.22
7840.22
7840.22
7840.22
7840.22
7840.21
7840.21
7840.21
7840.21
7840.21
7840.21
7840.21
7840.21
7840.21
7840.21
7840.21
7840.21
7840.21
7840.21
7840.21
7840.21
7840.21
7840.21
7840.21
7840.21
7840.21
7840.21
7840.2
7840.2
7840.2
7840.2
7840.2
7840.2
7840.2
7840.2
7840.2
7840.2
7840.2
7840.2
7840.2
7840.2
7840.2
7840.2
7840.2
7840.2
7840.2
7840.2
7840.2
7840.2
7840.2
7840.19
7840.19
7840.19
7840.19
7840.19
7840.19
7840.19
7840.19
7840.19
7840.19
7840.19
7840.19
7840.19
7840.19
7793.24
7794.16
7795.13
7795.91
7796.64
7797.31
7797.94
7798.53
7799.07
7799.57
7800.01
7800.4
7800.74
7801.03
7801.28
7801.48
7801.63
7801.73
7801.78
7801.79
7801.74
7801.66
7801.55
7801.4
7801.17
7800.92
7800.64
7800.33
7799.99
7799.58
7799.16
7798.72
7798.27
7797.73
7797.19
7796.63
7796.08
7795.51
7794.83
7794.18
7793.51
7792.84
7792.2
7791.51
7790.77
7790.04
7789.33
7788.6
7787.84
7787.07
7786.33
7785.58
7784.83
7784.07
7783.3
7782.54
7781.79
7781.04
7780.29
7779.56
7778.86
7778.16
7777.44
7776.75
7776.08
7775.43
7774.8
7774.17
7773.56
7772.98
7772.4
7771.85
7771.33
7770.85
7770.34
7769.89
7769.47
7769.07
7768.65
7768.23
7767.83
7767.35
7766.8
7766.5
7766.15
7765.77
7765.45
7765.08
7764.77
7764.5
7764.27
7764.07
7763.88
7763.71
7763.54
7763.41
7763.31
7763.25
7763.15
7763.1
7763.13
7763.02
7763.11
7763.35
7763.53
7763.69
7763.89
7764.12
7764.34
7764.59
7764.88
7765.18
7765.5
7765.84
7766.18
7766.54
7766.9
7767.28
7767.71
7768.05
7768.52
7769.16
7769.71
7770.28
7770.87
7771.45
7772.07
7772.7
7773.35
7774.01
7774.68
7775.35
7776.03
7776.73
7777.43
7778.14
7778.85
7779.57
7780.29
7781.02
7781.75
7782.48
7783.21
7783.94
7784.68
7785.41
7786.15
7786.88
7787.62
7788.35
7789.08
7789.82
7790.55
7791.28
7792.01
7792.73
7793.46
7794.18
7794.91
7795.63
7796.35
7797.06
7797.77
7798.48
7799.19
7799.89
7800.58
7801.27
7801.96
7802.64
7803.31
7803.98
7804.64
7805.29
7805.94
7806.58
7807.21
7807.84
7808.46
7809.07
7809.68
7810.27
7810.86
7811.44
7812.02
7812.58
7813.14
7813.69
7814.23
7814.76
7815.29
7815.81
7816.32
7816.82
7817.31
7817.8
7818.28
7818.75
7819.21
7819.66
7820.11
7820.55
7820.98
7821.41
7821.83
7822.24
7822.64
7823.03
7823.42
7823.8
7824.18
7824.55
7824.91
7825.26
7825.61
7825.95
7826.28
7826.61
7826.93
7827.25
7827.56
7827.86
7828.16
7828.45
7828.73
7829.01
7829.29
7829.56
7829.82
7830.08
7830.33
7830.58
7830.82
7831.06
7831.29
7831.51
7831.74
7831.96
7832.17
7832.38
7832.58
7832.78
7832.98
7833.17
7833.36
7833.54
7833.72
7833.89
7834.06
7834.23
7834.39
7834.55
7834.71
7834.86
7835.01
7835.16
7835.3
7835.44
7835.58
7835.71
7835.84
7835.96
7836.09
7836.21
7836.33
7836.44
7836.55
7836.66
7836.77
7836.87
7836.98
7837.08
7837.17
7837.27
7837.36
7837.45
7837.54
7837.62
7837.7
7837.79
7837.86
7837.94
7838.02
7838.09
7838.16
7838.23
7838.3
7838.36
7838.42
7838.49
7838.55
7838.6
7838.66
7838.72
7838.77
7838.82
7838.87
7838.92
7838.97
7839.01
7839.06
7839.1
7839.15
7839.19
7839.23
7839.27
7839.3
7839.34
7839.37
7839.41
7839.44
7839.47
7839.5
7839.53
7839.56
7839.59
7839.62
7839.65
7839.67
7839.7
7839.72
7839.74
7839.76
7839.79
7839.81
7839.83
7839.85
7839.87
7839.88
7839.9
7839.92
7839.93
7839.95
7839.96
7839.98
7839.99
7840.01
7840.02
7840.03
7840.04
7840.06
7840.07
7840.08
7840.09
7840.1
7840.11
7840.12
7840.13
7840.13
7840.14
7840.15
7840.16
7840.16
7840.17
7840.18
7840.18
7840.19
7840.2
7840.2
7840.21
7840.21
7840.22
7840.22
7840.23
7840.23
7840.23
7840.24
7840.24
7840.24
7840.25
7840.25
7840.25
7840.26
7840.26
7840.26
7840.26
7840.27
7840.27
7840.27
7840.27
7840.27
7840.27
7840.28
7840.28
7840.28
7840.28
7840.28
7840.28
7840.28
7840.28
7840.28
7840.28
7840.28
7840.28
7840.28
7840.28
7840.28
7840.28
7840.28
7840.28
7840.28
7840.28
7840.28
7840.28
7840.28
7840.28
7840.28
7840.28
7840.28
7840.28
7840.28
7840.28
7840.28
7840.28
7840.28
7840.28
7840.28
7840.27
7840.27
7840.27
7840.27
7840.27
7840.27
7840.27
7840.27
7840.27
7840.27
7840.27
7840.27
7840.26
7840.26
7840.26
7840.26
7840.26
7840.26
7840.26
7840.26
7840.26
7840.26
7840.26
7840.25
7840.25
7840.25
7840.25
7840.25
7840.25
7840.25
7840.25
7840.25
7840.25
7840.25
7840.24
7840.24
7840.24
7840.24
7840.24
7840.24
7840.24
7840.24
7840.24
7840.24
7840.23
7840.23
7840.23
7840.23
7840.23
7840.23
7840.23
7840.23
7840.23
7840.23
7840.23
7840.23
7840.22
7840.22
7840.22
7840.22
7840.22
7840.22
7840.22
7840.22
7840.22
7840.22
7840.22
7840.22
7840.22
7840.22
7840.22
7840.22
7840.22
7840.21
7840.21
7840.21
7840.21
7840.21
7840.21
7840.21
7840.21
7840.21
7840.21
7840.21
7840.21
7840.21
7840.21
7840.21
7840.21
7840.21
7840.21
7840.21
7840.21
7840.21
7840.21
7840.21
7840.2
7840.2
7840.2
7840.2
7840.2
7840.2
7840.2
7840.2
7840.2
7840.2
7840.2
7840.2
7840.2
7840.2
7840.2
7840.2
7840.2
7840.2
7840.2
7840.2
7840.2
7840.2
7840.2
7840.19
7840.19
7840.19
7840.19
7840.19
7840.19
7840.19
7840.19
7840.19
7840.19
7840.19
7840.19
7840.19
7840.19
7792.61
7793.65
7794.82
7795.66
7796.5
7797.29
7798.01
7798.66
7799.26
7799.79
7800.27
7800.68
7801.04
7801.35
7801.59
7801.79
7801.94
7802.04
7802.09
7802.09
7802.04
7801.96
7801.83
7801.65
7801.43
7801.18
7800.88
7800.54
7800.17
7799.75
7799.27
7798.81
7798.37
7797.94
7797.38
7796.72
7796.11
7795.49
7794.92
7794.31
7793.57
7792.86
7792.19
7791.53
7790.83
7790.03
7789.28
7788.53
7787.78
7787.02
7786.27
7785.51
7784.75
7784
7783.25
7782.48
7781.73
7781.01
7780.23
7779.49
7778.79
7778.11
7777.34
7776.65
7775.98
7775.38
7774.75
7774.12
7773.51
7772.9
7772.31
7771.78
7771.28
7770.77
7770.28
7769.8
7769.34
7768.86
7768.42
7768.07
7767.67
7767.27
7766.87
7766.48
7766.07
7765.58
7765.34
7765.01
7764.81
7764.52
7764.28
7764.03
7763.84
7763.66
7763.53
7763.41
7763.31
7763.23
7763.17
7763.16
7763.19
7763.22
7763.26
7763.34
7763.35
7763.52
7763.83
7764.06
7764.33
7764.58
7764.86
7765.15
7765.47
7765.81
7766.16
7766.53
7766.92
7767.32
7767.77
7768.22
7768.68
7769.16
7769.56
7770.11
7770.81
7771.42
7772.04
7772.67
7773.3
7773.96
7774.63
7775.31
7776
7776.7
7777.4
7778.11
7778.82
7779.54
7780.27
7781
7781.73
7782.46
7783.2
7783.93
7784.67
7785.4
7786.14
7786.88
7787.61
7788.35
7789.08
7789.82
7790.55
7791.28
7792.02
7792.75
7793.47
7794.2
7794.92
7795.65
7796.37
7797.08
7797.79
7798.5
7799.21
7799.91
7800.61
7801.3
7801.98
7802.66
7803.34
7804
7804.67
7805.32
7805.97
7806.61
7807.24
7807.87
7808.49
7809.1
7809.71
7810.3
7810.89
7811.47
7812.05
7812.61
7813.17
7813.72
7814.26
7814.8
7815.32
7815.84
7816.35
7816.85
7817.34
7817.83
7818.31
7818.78
7819.24
7819.7
7820.14
7820.58
7821.02
7821.44
7821.86
7822.27
7822.67
7823.06
7823.45
7823.83
7824.21
7824.57
7824.94
7825.29
7825.64
7825.98
7826.31
7826.64
7826.96
7827.28
7827.58
7827.89
7828.18
7828.47
7828.76
7829.04
7829.31
7829.58
7829.84
7830.1
7830.35
7830.6
7830.84
7831.08
7831.31
7831.54
7831.76
7831.98
7832.19
7832.4
7832.6
7832.8
7833
7833.19
7833.38
7833.56
7833.74
7833.91
7834.08
7834.25
7834.41
7834.57
7834.73
7834.88
7835.03
7835.18
7835.32
7835.46
7835.59
7835.73
7835.85
7835.98
7836.1
7836.23
7836.34
7836.46
7836.57
7836.68
7836.79
7836.89
7836.99
7837.09
7837.19
7837.28
7837.37
7837.46
7837.55
7837.63
7837.72
7837.8
7837.88
7837.95
7838.03
7838.1
7838.17
7838.24
7838.3
7838.37
7838.43
7838.49
7838.55
7838.61
7838.67
7838.72
7838.78
7838.83
7838.88
7838.93
7838.98
7839.02
7839.07
7839.11
7839.15
7839.19
7839.23
7839.27
7839.31
7839.34
7839.38
7839.41
7839.45
7839.48
7839.51
7839.54
7839.57
7839.6
7839.62
7839.65
7839.67
7839.7
7839.72
7839.75
7839.77
7839.79
7839.81
7839.83
7839.85
7839.87
7839.89
7839.9
7839.92
7839.94
7839.95
7839.97
7839.98
7840
7840.01
7840.02
7840.03
7840.05
7840.06
7840.07
7840.08
7840.09
7840.1
7840.11
7840.12
7840.13
7840.14
7840.14
7840.15
7840.16
7840.17
7840.17
7840.18
7840.19
7840.19
7840.2
7840.2
7840.21
7840.21
7840.22
7840.22
7840.23
7840.23
7840.23
7840.24
7840.24
7840.25
7840.25
7840.25
7840.25
7840.26
7840.26
7840.26
7840.26
7840.27
7840.27
7840.27
7840.27
7840.27
7840.27
7840.28
7840.28
7840.28
7840.28
7840.28
7840.28
7840.28
7840.28
7840.28
7840.28
7840.28
7840.28
7840.28
7840.28
7840.28
7840.28
7840.28
7840.28
7840.28
7840.28
7840.28
7840.28
7840.28
7840.28
7840.28
7840.28
7840.28
7840.28
7840.28
7840.28
7840.28
7840.28
7840.28
7840.28
7840.28
7840.27
7840.27
7840.27
7840.27
7840.27
7840.27
7840.27
7840.27
7840.27
7840.27
7840.27
7840.27
7840.26
7840.26
7840.26
7840.26
7840.26
7840.26
7840.26
7840.26
7840.26
7840.26
7840.26
7840.25
7840.25
7840.25
7840.25
7840.25
7840.25
7840.25
7840.25
7840.25
7840.25
7840.24
7840.24
7840.24
7840.24
7840.24
7840.24
7840.24
7840.24
7840.24
7840.24
7840.24
7840.23
7840.23
7840.23
7840.23
7840.23
7840.23
7840.23
7840.23
7840.23
7840.23
7840.23
7840.23
7840.22
7840.22
7840.22
7840.22
7840.22
7840.22
7840.22
7840.22
7840.22
7840.22
7840.22
7840.22
7840.22
7840.22
7840.22
7840.22
7840.22
7840.21
7840.21
7840.21
7840.21
7840.21
7840.21
7840.21
7840.21
7840.21
7840.21
7840.21
7840.21
7840.21
7840.21
7840.21
7840.21
7840.21
7840.21
7840.21
7840.21
7840.21
7840.21
7840.21
7840.2
7840.2
7840.2
7840.2
7840.2
7840.2
7840.2
7840.2
7840.2
7840.2
7840.2
7840.2
7840.2
7840.2
7840.2
7840.2
7840.2
7840.2
7840.2
7840.2
7840.2
7840.2
7840.2
7840.19
7840.19
7840.19
7840.19
7840.19
7840.19
7840.19
7840.19
7840.19
7840.19
7840.19
7840.19
7840.19
7840.19
7793.88
7794.73
7795.72
7796.49
7797.28
7798
7798.68
7799.31
7799.87
7800.37
7800.82
7801.21
7801.55
7801.84
7802.08
7802.26
7802.4
7802.49
7802.53
7802.52
7802.46
7802.36
7802.22
7802.04
7801.82
7801.55
7801.24
7800.89
7800.5
7800.08
7799.62
7799.13
7798.62
7798.14
7797.61
7797.03
7796.42
7795.8
7795.15
7794.49
7793.8
7793.09
7792.38
7791.65
7790.9
7790.14
7789.37
7788.6
7787.82
7787.04
7786.27
7785.5
7784.76
7784.01
7783.22
7782.47
7781.75
7780.89
7780.15
7779.43
7778.74
7777.96
7777.24
7776.56
7775.89
7775.2
7774.55
7773.95
7773.38
7772.81
7772.21
7771.62
7771.08
7770.6
7770.11
7769.62
7769.09
7768.63
7768.19
7767.82
7767.35
7766.9
7766.6
7766.29
7765.93
7765.57
7765.2
7764.9
7764.51
7764.25
7764.13
7763.93
7763.72
7763.57
7763.39
7763.27
7763.19
7763.14
7763.11
7763.11
7763.13
7763.14
7763.2
7763.36
7763.48
7763.61
7763.74
7763.96
7764.07
7764.3
7764.7
7765.05
7765.39
7765.74
7766.07
7766.46
7766.88
7767.3
7767.73
7768.18
7768.68
7769.19
7769.7
7770.23
7770.77
7771.23
7771.82
7772.57
7773.23
7773.9
7774.57
7775.24
7775.93
7776.64
7777.35
7778.06
7778.78
7779.5
7780.23
7780.96
7781.69
7782.43
7783.17
7783.91
7784.65
7785.39
7786.13
7786.87
7787.61
7788.35
7789.09
7789.83
7790.56
7791.3
7792.03
7792.77
7793.5
7794.23
7794.95
7795.68
7796.4
7797.12
7797.83
7798.54
7799.25
7799.95
7800.65
7801.34
7802.03
7802.71
7803.38
7804.05
7804.72
7805.37
7806.02
7806.66
7807.3
7807.93
7808.55
7809.16
7809.76
7810.36
7810.95
7811.53
7812.11
7812.67
7813.23
7813.78
7814.32
7814.86
7815.38
7815.9
7816.41
7816.91
7817.41
7817.89
7818.37
7818.84
7819.3
7819.76
7820.2
7820.64
7821.07
7821.5
7821.91
7822.32
7822.73
7823.12
7823.51
7823.89
7824.26
7824.63
7824.99
7825.34
7825.69
7826.03
7826.36
7826.69
7827.01
7827.33
7827.63
7827.94
7828.23
7828.52
7828.81
7829.09
7829.36
7829.63
7829.89
7830.15
7830.4
7830.64
7830.89
7831.12
7831.35
7831.58
7831.8
7832.02
7832.23
7832.44
7832.64
7832.84
7833.04
7833.23
7833.41
7833.59
7833.77
7833.95
7834.12
7834.28
7834.45
7834.61
7834.76
7834.91
7835.06
7835.21
7835.35
7835.49
7835.62
7835.75
7835.88
7836.01
7836.13
7836.25
7836.37
7836.48
7836.59
7836.7
7836.81
7836.91
7837.01
7837.11
7837.21
7837.3
7837.39
7837.48
7837.57
7837.65
7837.73
7837.82
7837.89
7837.97
7838.04
7838.12
7838.19
7838.25
7838.32
7838.39
7838.45
7838.51
7838.57
7838.63
7838.68
7838.74
7838.79
7838.84
7838.89
7838.94
7838.99
7839.03
7839.08
7839.12
7839.16
7839.2
7839.24
7839.28
7839.32
7839.35
7839.39
7839.42
7839.45
7839.49
7839.52
7839.55
7839.58
7839.6
7839.63
7839.66
7839.68
7839.71
7839.73
7839.75
7839.77
7839.8
7839.82
7839.84
7839.85
7839.87
7839.89
7839.91
7839.93
7839.94
7839.96
7839.97
7839.99
7840
7840.01
7840.03
7840.04
7840.05
7840.06
7840.07
7840.08
7840.09
7840.1
7840.11
7840.12
7840.13
7840.14
7840.15
7840.15
7840.16
7840.17
7840.17
7840.18
7840.19
7840.19
7840.2
7840.2
7840.21
7840.21
7840.22
7840.22
7840.23
7840.23
7840.24
7840.24
7840.24
7840.25
7840.25
7840.25
7840.26
7840.26
7840.26
7840.26
7840.27
7840.27
7840.27
7840.27
7840.27
7840.27
7840.28
7840.28
7840.28
7840.28
7840.28
7840.28
7840.28
7840.28
7840.28
7840.28
7840.28
7840.28
7840.28
7840.28
7840.28
7840.28
7840.28
7840.28
7840.28
7840.28
7840.28
7840.28
7840.28
7840.28
7840.28
7840.28
7840.28
7840.28
7840.28
7840.28
7840.28
7840.28
7840.28
7840.28
7840.28
7840.28
7840.27
7840.27
7840.27
7840.27
7840.27
7840.27
7840.27
7840.27
7840.27
7840.27
7840.27
7840.27
7840.26
7840.26
7840.26
7840.26
7840.26
7840.26
7840.26
7840.26
7840.26
7840.26
7840.26
7840.25
7840.25
7840.25
7840.25
7840.25
7840.25
7840.25
7840.25
7840.25
7840.25
7840.24
7840.24
7840.24
7840.24
7840.24
7840.24
7840.24
7840.24
7840.24
7840.24
7840.23
7840.23
7840.23
7840.23
7840.23
7840.23
7840.23
7840.23
7840.23
7840.23
7840.23
7840.23
7840.23
7840.22
7840.22
7840.22
7840.22
7840.22
7840.22
7840.22
7840.22
7840.22
7840.22
7840.22
7840.22
7840.22
7840.22
7840.22
7840.22
7840.22
7840.21
7840.21
7840.21
7840.21
7840.21
7840.21
7840.21
7840.21
7840.21
7840.21
7840.21
7840.21
7840.21
7840.21
7840.21
7840.21
7840.21
7840.21
7840.21
7840.21
7840.21
7840.21
7840.2
7840.2
7840.2
7840.2
7840.2
7840.2
7840.2
7840.2
7840.2
7840.2
7840.2
7840.2
7840.2
7840.2
7840.2
7840.2
7840.2
7840.2
7840.2
7840.2
7840.2
7840.2
7840.2
7840.19
7840.19
7840.19
7840.19
7840.19
7840.19
7840.19
7840.19
7840.19
7840.19
7840.19
7840.19
7840.19
7840.19
7840.19
7794.09
7795.16
7796.26
7797.05
7797.88
7798.63
7799.32
7799.94
7800.5
7801.01
7801.45
7801.84
7802.17
7802.45
7802.67
7802.85
7802.99
7803.07
7803.1
7803.09
7803.03
7802.92
7802.78
7802.59
7802.36
7802.09
7801.78
7801.42
7801.03
7800.59
7800.12
7799.62
7799.1
7798.56
7798
7797.42
7796.81
7796.17
7795.51
7794.82
7794.11
7793.38
7792.64
7791.88
7791.12
7790.35
7789.56
7788.78
7787.99
7787.18
7786.38
7785.62
7784.86
7784.06
7783.27
7782.5
7781.73
7780.94
7780.17
7779.41
7778.67
7777.95
7777.19
7776.45
7775.78
7775.14
7774.49
7773.84
7773.23
7772.64
7772.05
7771.43
7770.86
7770.32
7769.83
7769.41
7768.87
7768.48
7768.02
7767.46
7767.03
7766.63
7766.25
7765.99
7765.68
7765.27
7764.98
7764.81
7764.53
7764.26
7763.92
7763.57
7763.35
7763.34
7763.29
7763.18
7763.1
7762.95
7762.93
7762.95
7763.05
7763.03
7763.11
7763.25
7763.32
7763.48
7763.68
7763.91
7764.17
7764.34
7764.59
7764.76
7765.1
7765.61
7765.95
7766.35
7766.76
7767.19
7767.68
7768.13
7768.61
7769.12
7769.65
7770.21
7770.77
7771.33
7771.91
7772.51
7773.01
7773.67
7774.46
7775.15
7775.85
7776.56
7777.26
7777.98
7778.7
7779.43
7780.16
7780.89
7781.63
7782.37
7783.13
7783.86
7784.6
7785.35
7786.1
7786.85
7787.59
7788.34
7789.08
7789.82
7790.57
7791.31
7792.05
7792.79
7793.52
7794.25
7794.98
7795.71
7796.43
7797.15
7797.87
7798.58
7799.29
7800
7800.7
7801.39
7802.08
7802.76
7803.44
7804.11
7804.77
7805.43
7806.08
7806.73
7807.36
7807.99
7808.61
7809.23
7809.83
7810.43
7811.02
7811.61
7812.18
7812.75
7813.31
7813.86
7814.4
7814.93
7815.46
7815.98
7816.49
7816.99
7817.48
7817.97
7818.45
7818.92
7819.38
7819.83
7820.28
7820.72
7821.15
7821.57
7821.99
7822.4
7822.8
7823.19
7823.58
7823.96
7824.34
7824.7
7825.06
7825.41
7825.76
7826.1
7826.43
7826.76
7827.08
7827.39
7827.7
7828
7828.3
7828.59
7828.87
7829.15
7829.42
7829.69
7829.95
7830.2
7830.45
7830.7
7830.94
7831.18
7831.41
7831.63
7831.86
7832.07
7832.28
7832.49
7832.69
7832.89
7833.08
7833.27
7833.46
7833.64
7833.82
7833.99
7834.16
7834.33
7834.49
7834.65
7834.8
7834.95
7835.1
7835.24
7835.39
7835.52
7835.66
7835.79
7835.92
7836.04
7836.17
7836.28
7836.4
7836.51
7836.63
7836.73
7836.84
7836.94
7837.04
7837.14
7837.24
7837.33
7837.42
7837.51
7837.59
7837.68
7837.76
7837.84
7837.92
7837.99
7838.07
7838.14
7838.21
7838.27
7838.34
7838.4
7838.47
7838.53
7838.59
7838.64
7838.7
7838.75
7838.81
7838.86
7838.91
7838.96
7839
7839.05
7839.09
7839.14
7839.18
7839.22
7839.26
7839.29
7839.33
7839.37
7839.4
7839.43
7839.47
7839.5
7839.53
7839.56
7839.59
7839.61
7839.64
7839.67
7839.69
7839.71
7839.74
7839.76
7839.78
7839.8
7839.82
7839.84
7839.86
7839.88
7839.9
7839.91
7839.93
7839.95
7839.96
7839.98
7839.99
7840
7840.02
7840.03
7840.04
7840.05
7840.07
7840.08
7840.09
7840.1
7840.11
7840.12
7840.12
7840.13
7840.14
7840.15
7840.16
7840.16
7840.17
7840.18
7840.18
7840.19
7840.2
7840.2
7840.21
7840.21
7840.22
7840.22
7840.23
7840.23
7840.23
7840.24
7840.24
7840.24
7840.25
7840.25
7840.25
7840.26
7840.26
7840.26
7840.26
7840.27
7840.27
7840.27
7840.27
7840.27
7840.28
7840.28
7840.28
7840.28
7840.28
7840.28
7840.28
7840.28
7840.28
7840.28
7840.28
7840.28
7840.28
7840.29
7840.29
7840.29
7840.29
7840.29
7840.29
7840.29
7840.28
7840.28
7840.28
7840.28
7840.28
7840.28
7840.28
7840.28
7840.28
7840.28
7840.28
7840.28
7840.28
7840.28
7840.28
7840.28
7840.28
7840.27
7840.27
7840.27
7840.27
7840.27
7840.27
7840.27
7840.27
7840.27
7840.27
7840.27
7840.27
7840.26
7840.26
7840.26
7840.26
7840.26
7840.26
7840.26
7840.26
7840.26
7840.26
7840.26
7840.25
7840.25
7840.25
7840.25
7840.25
7840.25
7840.25
7840.25
7840.25
7840.25
7840.24
7840.24
7840.24
7840.24
7840.24
7840.24
7840.24
7840.24
7840.24
7840.24
7840.24
7840.23
7840.23
7840.23
7840.23
7840.23
7840.23
7840.23
7840.23
7840.23
7840.23
7840.23
7840.23
7840.23
7840.22
7840.22
7840.22
7840.22
7840.22
7840.22
7840.22
7840.22
7840.22
7840.22
7840.22
7840.22
7840.22
7840.22
7840.22
7840.22
7840.21
7840.21
7840.21
7840.21
7840.21
7840.21
7840.21
7840.21
7840.21
7840.21
7840.21
7840.21
7840.21
7840.21
7840.21
7840.21
7840.21
7840.21
7840.21
7840.21
7840.21
7840.21
7840.2
7840.2
7840.2
7840.2
7840.2
7840.2
7840.2
7840.2
7840.2
7840.2
7840.2
7840.2
7840.2
7840.2
7840.2
7840.2
7840.2
7840.2
7840.2
7840.2
7840.2
7840.2
7840.2
7840.19
7840.19
7840.19
7840.19
7840.19
7840.19
7840.19
7840.19
7840.19
7840.19
7840.19
7840.19
7840.19
7840.19
7840.19
7794.94
7795.92
7797.15
7797.82
7798.67
7799.37
7800.03
7800.63
7801.17
7801.66
7802.09
7802.46
7802.77
7803.05
7803.27
7803.44
7803.57
7803.66
7803.69
7803.66
7803.6
7803.49
7803.33
7803.13
7802.88
7802.6
7802.28
7801.93
7801.53
7801.08
7800.59
7800.06
7799.5
7798.92
7798.3
7797.68
7797.02
7796.35
7795.66
7794.95
7794.23
7793.48
7792.72
7791.96
7791.19
7790.41
7789.63
7788.84
7788.04
7787.24
7786.43
7785.67
7784.87
7784.08
7783.29
7782.51
7781.72
7780.95
7780.18
7779.42
7778.67
7777.92
7777.16
7776.44
7775.76
7775.09
7774.43
7773.77
7773.13
7772.54
7771.95
7771.37
7770.76
7770.16
7769.68
7769.22
7768.74
7768.28
7767.81
7767.28
7766.9
7766.59
7766.21
7765.82
7765.41
7765.1
7764.87
7764.59
7764.3
7764.12
7763.92
7763.71
7763.5
7763.25
7762.94
7762.87
7762.94
7762.96
7762.88
7762.87
7762.85
7762.95
7763.05
7763.17
7763.29
7763.44
7763.63
7763.85
7764.07
7764.3
7764.58
7764.89
7765.18
7765.49
7765.72
7766.12
7766.67
7767.12
7767.57
7768.06
7768.56
7769.07
7769.61
7770.15
7770.72
7771.3
7771.88
7772.5
7773.13
7773.75
7774.39
7774.94
7775.64
7776.45
7777.18
7777.91
7778.62
7779.35
7780.07
7780.81
7781.56
7782.31
7783.06
7783.81
7784.56
7785.31
7786.07
7786.82
7787.57
7788.32
7789.07
7789.82
7790.57
7791.32
7792.06
7792.8
7793.54
7794.28
7795.01
7795.74
7796.47
7797.19
7797.91
7798.63
7799.34
7800.05
7800.75
7801.44
7802.13
7802.82
7803.5
7804.17
7804.84
7805.5
7806.15
7806.79
7807.43
7808.06
7808.69
7809.3
7809.91
7810.51
7811.1
7811.68
7812.26
7812.82
7813.38
7813.93
7814.48
7815.01
7815.54
7816.06
7816.57
7817.07
7817.56
7818.05
7818.53
7819
7819.46
7819.91
7820.36
7820.8
7821.23
7821.65
7822.07
7822.48
7822.88
7823.27
7823.66
7824.04
7824.41
7824.78
7825.14
7825.49
7825.83
7826.17
7826.5
7826.83
7827.15
7827.46
7827.77
7828.07
7828.36
7828.65
7828.93
7829.21
7829.48
7829.75
7830.01
7830.27
7830.52
7830.76
7831
7831.24
7831.47
7831.69
7831.91
7832.13
7832.34
7832.55
7832.75
7832.95
7833.14
7833.33
7833.51
7833.69
7833.87
7834.04
7834.21
7834.38
7834.54
7834.7
7834.85
7835
7835.15
7835.29
7835.43
7835.57
7835.7
7835.83
7835.96
7836.08
7836.21
7836.32
7836.44
7836.55
7836.66
7836.77
7836.88
7836.98
7837.08
7837.18
7837.27
7837.36
7837.45
7837.54
7837.63
7837.71
7837.79
7837.87
7837.95
7838.02
7838.09
7838.16
7838.23
7838.3
7838.37
7838.43
7838.49
7838.55
7838.61
7838.67
7838.72
7838.77
7838.83
7838.88
7838.93
7838.97
7839.02
7839.07
7839.11
7839.15
7839.19
7839.23
7839.27
7839.31
7839.35
7839.38
7839.41
7839.45
7839.48
7839.51
7839.54
7839.57
7839.6
7839.63
7839.65
7839.68
7839.7
7839.73
7839.75
7839.77
7839.79
7839.81
7839.83
7839.85
7839.87
7839.89
7839.91
7839.92
7839.94
7839.95
7839.97
7839.98
7840
7840.01
7840.02
7840.04
7840.05
7840.06
7840.07
7840.08
7840.09
7840.1
7840.11
7840.12
7840.13
7840.14
7840.15
7840.15
7840.16
7840.17
7840.17
7840.18
7840.19
7840.19
7840.2
7840.2
7840.21
7840.21
7840.22
7840.22
7840.23
7840.23
7840.24
7840.24
7840.24
7840.25
7840.25
7840.25
7840.26
7840.26
7840.26
7840.26
7840.27
7840.27
7840.27
7840.27
7840.27
7840.27
7840.28
7840.28
7840.28
7840.28
7840.28
7840.28
7840.28
7840.28
7840.28
7840.28
7840.28
7840.29
7840.29
7840.29
7840.29
7840.29
7840.29
7840.29
7840.29
7840.29
7840.29
7840.28
7840.28
7840.28
7840.28
7840.28
7840.28
7840.28
7840.28
7840.28
7840.28
7840.28
7840.28
7840.28
7840.28
7840.28
7840.28
7840.28
7840.27
7840.27
7840.27
7840.27
7840.27
7840.27
7840.27
7840.27
7840.27
7840.27
7840.27
7840.27
7840.26
7840.26
7840.26
7840.26
7840.26
7840.26
7840.26
7840.26
7840.26
7840.26
7840.25
7840.25
7840.25
7840.25
7840.25
7840.25
7840.25
7840.25
7840.25
7840.25
7840.25
7840.24
7840.24
7840.24
7840.24
7840.24
7840.24
7840.24
7840.24
7840.24
7840.24
7840.23
7840.23
7840.23
7840.23
7840.23
7840.23
7840.23
7840.23
7840.23
7840.23
7840.23
7840.23
7840.23
7840.22
7840.22
7840.22
7840.22
7840.22
7840.22
7840.22
7840.22
7840.22
7840.22
7840.22
7840.22
7840.22
7840.22
7840.22
7840.22
7840.21
7840.21
7840.21
7840.21
7840.21
7840.21
7840.21
7840.21
7840.21
7840.21
7840.21
7840.21
7840.21
7840.21
7840.21
7840.21
7840.21
7840.21
7840.21
7840.21
7840.21
7840.21
7840.2
7840.2
7840.2
7840.2
7840.2
7840.2
7840.2
7840.2
7840.2
7840.2
7840.2
7840.2
7840.2
7840.2
7840.2
7840.2
7840.2
7840.2
7840.2
7840.2
7840.2
7840.2
7840.2
7840.19
7840.19
7840.19
7840.19
7840.19
7840.19
7840.19
7840.19
7840.19
7840.19
7840.19
7840.19
7840.19
7840.19
7840.19
7795.82
7796.61
7798.05
7798.67
7799.42
7800.1
7800.75
7801.33
7801.84
7802.31
7802.72
7803.07
7803.37
7803.63
7803.84
7804.01
7804.12
7804.18
7804.19
7804.14
7804.06
7803.92
7803.73
7803.49
7803.21
7802.89
7802.53
7802.15
7801.74
7801.29
7800.79
7800.25
7799.67
7799.03
7798.37
7797.69
7796.98
7796.28
7795.58
7794.83
7794.03
7793.25
7792.52
7791.75
7790.94
7790.17
7789.41
7788.62
7787.78
7786.96
7786.22
7785.45
7784.65
7783.85
7783.09
7782.31
7781.51
7780.74
7780.02
7779.27
7778.52
7777.78
7777.04
7776.31
7775.57
7774.87
7774.22
7773.56
7772.93
7772.3
7771.7
7771.12
7770.54
7769.94
7769.38
7768.91
7768.45
7767.99
7767.51
7767.06
7766.7
7766.32
7765.93
7765.53
7765.17
7764.92
7764.63
7764.34
7764.06
7763.82
7763.6
7763.41
7763.32
7763.19
7763.04
7762.9
7762.71
7762.56
7762.57
7762.67
7762.76
7762.77
7762.87
7762.97
7763.14
7763.32
7763.49
7763.73
7763.96
7764.21
7764.45
7764.76
7765.09
7765.44
7765.77
7766.17
7766.56
7766.87
7767.32
7767.93
7768.45
7768.98
7769.52
7770.06
7770.64
7771.23
7771.84
7772.45
7773.07
7773.71
7774.38
7775.04
7775.72
7776.4
7777.08
7777.68
7778.4
7779.24
7779.98
7780.72
7781.48
7782.23
7782.98
7783.75
7784.51
7785.26
7786.03
7786.79
7787.54
7788.31
7789.07
7789.83
7790.58
7791.33
7792.08
7792.83
7793.58
7794.32
7795.06
7795.79
7796.52
7797.25
7797.97
7798.69
7799.4
7800.11
7800.81
7801.51
7802.21
7802.89
7803.58
7804.25
7804.92
7805.58
7806.24
7806.88
7807.52
7808.15
7808.78
7809.4
7810
7810.6
7811.2
7811.78
7812.36
7812.93
7813.49
7814.04
7814.58
7815.12
7815.64
7816.16
7816.67
7817.17
7817.67
7818.15
7818.63
7819.1
7819.57
7820.02
7820.47
7820.9
7821.33
7821.76
7822.17
7822.58
7822.98
7823.37
7823.76
7824.14
7824.51
7824.87
7825.23
7825.58
7825.93
7826.26
7826.6
7826.92
7827.24
7827.55
7827.86
7828.15
7828.45
7828.74
7829.02
7829.29
7829.57
7829.83
7830.09
7830.34
7830.59
7830.84
7831.08
7831.31
7831.54
7831.76
7831.98
7832.2
7832.41
7832.62
7832.82
7833.02
7833.21
7833.4
7833.58
7833.76
7833.94
7834.11
7834.27
7834.44
7834.6
7834.76
7834.91
7835.06
7835.2
7835.35
7835.49
7835.62
7835.75
7835.88
7836.01
7836.13
7836.26
7836.37
7836.49
7836.6
7836.71
7836.82
7836.92
7837.02
7837.12
7837.22
7837.31
7837.4
7837.49
7837.58
7837.66
7837.75
7837.83
7837.9
7837.98
7838.05
7838.13
7838.2
7838.26
7838.33
7838.39
7838.46
7838.52
7838.58
7838.64
7838.69
7838.75
7838.8
7838.85
7838.9
7838.95
7839
7839.04
7839.09
7839.13
7839.17
7839.21
7839.25
7839.29
7839.33
7839.36
7839.4
7839.43
7839.46
7839.5
7839.53
7839.56
7839.58
7839.61
7839.64
7839.66
7839.69
7839.71
7839.74
7839.76
7839.78
7839.8
7839.82
7839.84
7839.86
7839.88
7839.9
7839.92
7839.93
7839.95
7839.96
7839.98
7839.99
7840.01
7840.02
7840.03
7840.04
7840.06
7840.07
7840.08
7840.09
7840.1
7840.11
7840.12
7840.13
7840.13
7840.14
7840.15
7840.16
7840.16
7840.17
7840.18
7840.18
7840.19
7840.2
7840.2
7840.21
7840.21
7840.22
7840.22
7840.23
7840.23
7840.24
7840.24
7840.24
7840.25
7840.25
7840.25
7840.26
7840.26
7840.26
7840.26
7840.27
7840.27
7840.27
7840.27
7840.27
7840.27
7840.28
7840.28
7840.28
7840.28
7840.28
7840.28
7840.28
7840.28
7840.28
7840.28
7840.29
7840.29
7840.29
7840.29
7840.29
7840.29