/*--------------------------------*- C++ -*----------------------------------*\
| =========                 |                                                 |
| \\      /  F ield         | OpenFOAM: The Open Source CFD Toolbox           |
|  \\    /   O peration     | Version:  v2006                                 |
|   \\  /    A nd           | Website:  www.openfoam.com                      |
|    \\/     M anipulation  |                                                 |
\*---------------------------------------------------------------------------*/
FoamFile
{
    version     2.0;
    format      ascii;
    class       volScalarField;
    location    "7.8";
    object      nut;
}
// * * * * * * * * * * * * * * * * * * * * * * * * * * * * * * * * * * * * * //

dimensions      [0 2 -1 0 0 0 0];


internalField   nonuniform List<scalar> 
33000
(
1.0316e-09
7.76102e-10
1.00773e-09
1.12866e-09
1.30949e-09
1.41759e-09
1.4729e-09
1.40796e-09
1.25865e-09
1.17454e-09
1.28311e-09
1.47387e-09
1.61436e-09
1.71428e-09
1.7803e-09
1.99429e-09
2.54008e-09
3.35419e-09
4.30592e-09
5.92704e-09
9.17846e-09
1.33968e-08
1.56371e-08
1.62548e-08
1.55702e-08
1.48958e-08
1.45962e-08
1.412e-08
1.33764e-08
1.26613e-08
1.25569e-08
1.3265e-08
1.46874e-08
1.6541e-08
2.07465e-08
3.08093e-08
4.85015e-08
6.7867e-08
8.05287e-08
9.16558e-08
1.07468e-07
1.25969e-07
1.37535e-07
1.3104e-07
1.15731e-07
1.05544e-07
1.03701e-07
1.0497e-07
1.06213e-07
1.04428e-07
9.49079e-08
8.5731e-08
8.17165e-08
8.08374e-08
8.0726e-08
7.96883e-08
7.62402e-08
7.10062e-08
6.62266e-08
6.25007e-08
5.89073e-08
5.5626e-08
5.38431e-08
5.42464e-08
5.584e-08
5.68703e-08
5.65419e-08
5.53841e-08
5.41069e-08
5.31188e-08
5.18008e-08
4.92423e-08
4.57432e-08
4.22098e-08
3.89741e-08
3.6089e-08
3.22846e-08
3.14639e-08
3.82446e-08
3.77947e-08
3.82255e-08
3.83233e-08
3.80098e-08
4.39512e-08
4.73582e-08
5.26576e-08
5.9459e-08
6.70918e-08
6.95617e-08
7.27035e-08
7.88508e-08
8.1017e-08
8.34741e-08
8.38154e-08
8.20753e-08
7.8978e-08
7.47609e-08
6.91616e-08
6.30579e-08
6.82092e-08
8.37305e-08
1.18544e-07
1.46933e-07
1.36697e-07
2.14066e-07
3.43367e-07
4.50825e-07
4.58431e-07
4.59396e-07
4.57883e-07
4.55468e-07
4.48444e-07
4.4285e-07
4.38973e-07
4.33261e-07
4.20906e-07
3.52715e-07
3.28824e-07
3.72489e-07
3.65782e-07
3.65361e-07
3.69218e-07
3.66284e-07
3.65855e-07
3.72538e-07
3.76951e-07
3.80698e-07
3.83778e-07
3.84551e-07
3.85139e-07
3.87171e-07
3.88747e-07
3.90973e-07
3.9258e-07
3.93679e-07
3.93911e-07
3.94223e-07
3.95177e-07
3.96223e-07
3.97421e-07
3.98465e-07
3.99502e-07
4.00572e-07
4.01813e-07
4.02916e-07
4.03676e-07
4.04167e-07
4.0444e-07
4.04732e-07
4.05203e-07
4.0568e-07
4.0572e-07
4.05377e-07
4.05032e-07
3.79502e-07
3.49529e-07
3.24387e-07
3.02345e-07
2.82135e-07
2.6346e-07
2.46676e-07
2.31542e-07
2.17686e-07
2.0595e-07
1.95347e-07
1.84818e-07
1.749e-07
1.66558e-07
1.59187e-07
1.51806e-07
1.44609e-07
1.38059e-07
1.32566e-07
1.27629e-07
1.22691e-07
1.17945e-07
1.13559e-07
1.09631e-07
1.06381e-07
1.03517e-07
1.00779e-07
9.81869e-08
9.56113e-08
9.31852e-08
9.10001e-08
8.91208e-08
8.75784e-08
8.6146e-08
8.47025e-08
8.33156e-08
8.21341e-08
8.11643e-08
8.03269e-08
7.95505e-08
7.87823e-08
7.80236e-08
7.7299e-08
7.67434e-08
7.6419e-08
7.62589e-08
7.60746e-08
7.57826e-08
7.55554e-08
7.54775e-08
7.55587e-08
7.57822e-08
7.59963e-08
7.61703e-08
7.6441e-08
7.70941e-08
7.79119e-08
7.85168e-08
7.91506e-08
7.98367e-08
8.07586e-08
8.20621e-08
8.36032e-08
8.50957e-08
8.64164e-08
8.78188e-08
8.92917e-08
9.10459e-08
9.31955e-08
9.55031e-08
9.77681e-08
9.98798e-08
1.02018e-07
1.04162e-07
1.06623e-07
1.0952e-07
1.12523e-07
1.15449e-07
1.18086e-07
1.20713e-07
1.23599e-07
1.26688e-07
1.29822e-07
1.33094e-07
1.36568e-07
1.40055e-07
1.43802e-07
1.47306e-07
1.50505e-07
1.53977e-07
1.57486e-07
1.61498e-07
1.66464e-07
1.70994e-07
1.74609e-07
1.78643e-07
1.83058e-07
1.88101e-07
1.93808e-07
1.99547e-07
2.05214e-07
2.11009e-07
2.17201e-07
2.24308e-07
2.32155e-07
2.40662e-07
2.49743e-07
2.58874e-07
2.68379e-07
2.69392e-07
2.67537e-07
2.65645e-07
2.63619e-07
2.61442e-07
2.59221e-07
2.57021e-07
2.54845e-07
2.52686e-07
2.50513e-07
2.4828e-07
2.45955e-07
2.43547e-07
2.41108e-07
2.38658e-07
2.36186e-07
2.33703e-07
2.31238e-07
2.28773e-07
2.26234e-07
2.23568e-07
2.20834e-07
2.18093e-07
2.15329e-07
2.12519e-07
2.09667e-07
2.06752e-07
2.03742e-07
2.00618e-07
1.97379e-07
1.94011e-07
1.90503e-07
1.8695e-07
1.83401e-07
1.79835e-07
1.76246e-07
1.72643e-07
1.69031e-07
1.6542e-07
1.61809e-07
1.58158e-07
1.54451e-07
1.50723e-07
1.45134e-07
1.37682e-07
1.30886e-07
1.24709e-07
1.1918e-07
1.14194e-07
1.09583e-07
1.05276e-07
1.0136e-07
9.79022e-08
9.47771e-08
9.19132e-08
8.93075e-08
8.69355e-08
8.47904e-08
8.28531e-08
8.11031e-08
7.94839e-08
7.7972e-08
7.65985e-08
7.53463e-08
7.41536e-08
7.29955e-08
7.18848e-08
7.08386e-08
6.9849e-08
6.88979e-08
6.79446e-08
6.69707e-08
6.60162e-08
6.51019e-08
6.42042e-08
6.32959e-08
6.23822e-08
6.14594e-08
6.05337e-08
5.96107e-08
5.87007e-08
5.77987e-08
5.69031e-08
5.60233e-08
5.51589e-08
5.43143e-08
5.34881e-08
5.26782e-08
5.18788e-08
5.10921e-08
5.03244e-08
4.95763e-08
4.88435e-08
4.81238e-08
4.74189e-08
4.67259e-08
4.60498e-08
4.53912e-08
4.47473e-08
4.41164e-08
4.35006e-08
4.29009e-08
4.23129e-08
4.17345e-08
4.11673e-08
4.06158e-08
4.00845e-08
3.95663e-08
3.9055e-08
3.8551e-08
3.80611e-08
3.75874e-08
3.71252e-08
3.66712e-08
3.62245e-08
3.57903e-08
3.53635e-08
3.49387e-08
3.45205e-08
3.41188e-08
3.37261e-08
3.33411e-08
3.29623e-08
3.25953e-08
3.22345e-08
3.18863e-08
3.15515e-08
3.12323e-08
3.0919e-08
3.06163e-08
3.03261e-08
3.00571e-08
2.97986e-08
2.95598e-08
2.93384e-08
2.91327e-08
2.89372e-08
2.87616e-08
2.86084e-08
2.84742e-08
2.83706e-08
2.82851e-08
2.82342e-08
2.81709e-08
2.81669e-08
2.81591e-08
2.8237e-08
2.83143e-08
2.8455e-08
2.86124e-08
2.87935e-08
2.90299e-08
2.92238e-08
2.95219e-08
2.9936e-08
3.0374e-08
3.09117e-08
3.14217e-08
3.13841e-08
3.17551e-08
3.27802e-08
3.37792e-08
3.64074e-08
3.80507e-08
3.77965e-08
3.78726e-08
3.80013e-08
4.58955e-08
5.36231e-08
5.48777e-08
5.56801e-08
5.63432e-08
5.66255e-08
5.67842e-08
5.68293e-08
5.69248e-08
5.69424e-08
5.69576e-08
5.72543e-08
5.69764e-08
5.64601e-08
5.65422e-08
5.57776e-08
5.55296e-08
5.09201e-08
3.29088e-08
2.93459e-08
2.80041e-08
2.76537e-08
2.71646e-08
2.6564e-08
2.57895e-08
2.48682e-08
2.40593e-08
2.30067e-08
2.15561e-08
2.14315e-08
2.17875e-08
2.13507e-08
2.15915e-08
1.91741e-08
1.6257e-08
1.50465e-08
1.38292e-08
1.28825e-08
1.01465e-08
8.3168e-09
7.85644e-09
7.97119e-09
8.32315e-09
8.80371e-09
9.33226e-09
9.82109e-09
1.02062e-08
1.04796e-08
1.0665e-08
1.07887e-08
1.08564e-08
1.08763e-08
1.08669e-08
1.08345e-08
1.07901e-08
1.07419e-08
1.06863e-08
1.06197e-08
1.05512e-08
1.04892e-08
1.0425e-08
1.03548e-08
1.02854e-08
1.02216e-08
1.01634e-08
1.01045e-08
1.00439e-08
9.98359e-09
9.92638e-09
9.87208e-09
9.81745e-09
9.76573e-09
9.71873e-09
9.67164e-09
9.62241e-09
9.57225e-09
9.52351e-09
9.4782e-09
9.43648e-09
9.39625e-09
9.35827e-09
9.32096e-09
9.28373e-09
9.25012e-09
9.21779e-09
9.18514e-09
9.15531e-09
9.12946e-09
9.10581e-09
9.08275e-09
9.05987e-09
9.03707e-09
9.01482e-09
8.99379e-09
8.97443e-09
8.95673e-09
8.94075e-09
8.92651e-09
8.91347e-09
8.90157e-09
8.89099e-09
8.88205e-09
8.87523e-09
8.87057e-09
8.86758e-09
8.8652e-09
8.86455e-09
8.86369e-09
8.87225e-09
8.86553e-09
8.89677e-09
8.87359e-09
8.93447e-09
8.88345e-09
8.98921e-09
8.8963e-09
9.01853e-09
9.20539e-09
8.19141e-09
1.09817e-08
2.97772e-09
2.51252e-09
5.71793e-09
1.11391e-08
1.24834e-08
1.56332e-08
1.16985e-08
5.29093e-09
3.22143e-09
2.77169e-09
2.61782e-09
2.56739e-09
2.65409e-09
2.89736e-09
3.59163e-09
4.92867e-09
7.93436e-09
2.02369e-08
2.97154e-08
3.45279e-08
4.39293e-08
5.37237e-08
6.88772e-08
9.31487e-08
1.24591e-07
1.58397e-07
1.90846e-07
2.19838e-07
2.43689e-07
2.61301e-07
2.72955e-07
2.79544e-07
2.97331e-07
3.24209e-07
3.57287e-07
3.95529e-07
4.27196e-07
4.34781e-07
4.29565e-07
4.26751e-07
4.21116e-07
3.98395e-07
3.54749e-07
3.14952e-07
2.85313e-07
2.37748e-07
1.93053e-07
2.29958e-07
2.49974e-07
1.94278e-07
1.52716e-07
1.2468e-07
9.9105e-08
1.05475e-07
1.42505e-07
1.80972e-07
1.49935e-07
8.62777e-08
5.83875e-08
4.74488e-08
4.77576e-08
5.87091e-08
9.02249e-08
1.36674e-07
1.48223e-07
1.43751e-07
1.68198e-07
2.05435e-07
2.03317e-07
2.06325e-07
2.05151e-07
1.70387e-07
1.41127e-07
1.22766e-07
9.24203e-08
8.17718e-08
8.42788e-08
1.18277e-07
2.10444e-07
1.81281e-07
1.19965e-07
1.89745e-07
1.98614e-07
2.14697e-07
2.25532e-07
2.46434e-07
2.56493e-07
2.54644e-07
2.39833e-07
2.20831e-07
1.94939e-07
1.67157e-07
1.48036e-07
1.35338e-07
1.22486e-07
9.16438e-08
1.04691e-07
7.94879e-08
9.03244e-08
1.10442e-07
1.48619e-07
1.47691e-07
1.47809e-07
1.42183e-07
1.19189e-07
9.74491e-08
8.57895e-08
8.75838e-08
9.38079e-08
3.64638e-08
5.22243e-08
3.88527e-08
1.08641e-07
7.56077e-08
1.03358e-07
9.34342e-08
1.03136e-07
1.4706e-07
1.4519e-07
6.17554e-08
3.75773e-08
4.46095e-08
6.57231e-08
9.07965e-08
7.48789e-08
1.2493e-07
1.11106e-07
1.47554e-07
1.53825e-07
1.59694e-07
1.63752e-07
1.66768e-07
1.6839e-07
1.69195e-07
1.69706e-07
1.7021e-07
1.70645e-07
1.70903e-07
1.71148e-07
1.71372e-07
1.69084e-07
1.53289e-07
1.48819e-07
1.50252e-07
1.53931e-07
1.50482e-07
1.45309e-07
1.36375e-07
1.35935e-07
1.42121e-07
1.44028e-07
1.38972e-07
1.30762e-07
1.26153e-07
1.29506e-07
1.33912e-07
1.30475e-07
1.23889e-07
1.21771e-07
1.2446e-07
1.27491e-07
1.26156e-07
1.26564e-07
1.27753e-07
1.25106e-07
1.24084e-07
1.27101e-07
1.32596e-07
1.33765e-07
1.31279e-07
1.3209e-07
1.37621e-07
1.42064e-07
1.44003e-07
1.4421e-07
1.44169e-07
1.46456e-07
1.51432e-07
1.60462e-07
1.68542e-07
1.74957e-07
1.77445e-07
1.77176e-07
1.80227e-07
1.88198e-07
1.89535e-07
1.90602e-07
1.91564e-07
1.92717e-07
1.94252e-07
1.95847e-07
1.97169e-07
1.98134e-07
1.98895e-07
1.99753e-07
2.00741e-07
2.01959e-07
2.03298e-07
2.04383e-07
2.05044e-07
2.05318e-07
2.05782e-07
2.06584e-07
2.07499e-07
2.08356e-07
2.08889e-07
2.09136e-07
2.09574e-07
1.94522e-07
1.81442e-07
1.77077e-07
1.66994e-07
1.54463e-07
1.43413e-07
1.32959e-07
1.25436e-07
1.20017e-07
1.17896e-07
1.16028e-07
1.12127e-07
1.08282e-07
1.04513e-07
1.0144e-07
9.87423e-08
9.77138e-08
9.7889e-08
9.73569e-08
9.6224e-08
9.41314e-08
9.27116e-08
9.35433e-08
9.57824e-08
9.68136e-08
9.70412e-08
9.60001e-08
9.36812e-08
9.25467e-08
9.37046e-08
9.65354e-08
1.00758e-07
1.02339e-07
1.01121e-07
1.00806e-07
1.01131e-07
1.00457e-07
1.02002e-07
1.05176e-07
1.07304e-07
1.07439e-07
1.05945e-07
1.05113e-07
1.06074e-07
1.08034e-07
1.09692e-07
1.08428e-07
1.05912e-07
1.0273e-07
1.01924e-07
1.05753e-07
1.0749e-07
1.05995e-07
1.04505e-07
1.02276e-07
9.9401e-08
9.82183e-08
9.88158e-08
1.00262e-07
1.0045e-07
9.94016e-08
9.79856e-08
9.68179e-08
9.65862e-08
9.72986e-08
9.7187e-08
9.59351e-08
9.59292e-08
9.69799e-08
9.80227e-08
9.90008e-08
9.8719e-08
9.79002e-08
9.85545e-08
1.0012e-07
1.02244e-07
1.02974e-07
1.02881e-07
1.04113e-07
1.06282e-07
1.08027e-07
1.09683e-07
1.11432e-07
1.12435e-07
1.13687e-07
1.16215e-07
1.20125e-07
1.23726e-07
1.25926e-07
1.26421e-07
1.27801e-07
1.3209e-07
1.38461e-07
1.43595e-07
1.46127e-07
1.47779e-07
1.52097e-07
1.61699e-07
1.70264e-07
1.74467e-07
1.7762e-07
1.85499e-07
1.98061e-07
2.07837e-07
2.14868e-07
2.18836e-07
2.22502e-07
2.23427e-07
2.24229e-07
2.25052e-07
2.25926e-07
2.26785e-07
2.27522e-07
2.28102e-07
2.28628e-07
2.29132e-07
2.29525e-07
2.29663e-07
2.21188e-07
2.11396e-07
2.03374e-07
1.96082e-07
1.88981e-07
1.81623e-07
1.74559e-07
1.68376e-07
1.63108e-07
1.58283e-07
1.55332e-07
1.52939e-07
1.50798e-07
1.49463e-07
1.47953e-07
1.46407e-07
1.45533e-07
1.45237e-07
1.45118e-07
1.46244e-07
1.47991e-07
1.49497e-07
1.50937e-07
1.52622e-07
1.54741e-07
1.57166e-07
1.60099e-07
1.63549e-07
1.67539e-07
1.7166e-07
1.7579e-07
1.79798e-07
1.84603e-07
1.91219e-07
1.98339e-07
2.05347e-07
2.12774e-07
2.19699e-07
2.1959e-07
2.19495e-07
2.19485e-07
2.19548e-07
2.19638e-07
2.19667e-07
2.19662e-07
2.19744e-07
2.1998e-07
2.20297e-07
2.20571e-07
2.20786e-07
2.20986e-07
2.21183e-07
2.21348e-07
2.21513e-07
2.2184e-07
2.22366e-07
2.22939e-07
2.23413e-07
2.23792e-07
2.24149e-07
2.24536e-07
2.25066e-07
2.25725e-07
2.26351e-07
2.2686e-07
2.2744e-07
2.28205e-07
2.29013e-07
2.29753e-07
2.30531e-07
2.31255e-07
2.31876e-07
2.32529e-07
2.2526e-07
2.10102e-07
1.96048e-07
1.82573e-07
1.70635e-07
1.59822e-07
1.51946e-07
1.43658e-07
1.37858e-07
1.30065e-07
1.22452e-07
1.16765e-07
1.10077e-07
1.06439e-07
1.02285e-07
1.03515e-07
1.00755e-07
9.07768e-08
8.76192e-08
7.95297e-08
7.84938e-08
1.0427e-07
1.13482e-07
7.26948e-08
6.26e-08
4.32241e-08
4.07964e-08
2.74225e-08
2.34631e-08
2.85718e-08
3.89382e-08
5.3744e-08
4.71473e-08
5.23193e-08
4.53863e-08
4.75705e-08
4.34251e-08
4.26085e-08
4.39779e-08
7.37884e-08
1.17749e-07
4.45597e-08
3.46658e-08
2.28557e-08
2.15812e-08
1.35419e-08
1.05942e-08
1.18243e-08
1.4964e-08
2.10502e-08
2.17056e-08
2.57669e-08
2.82295e-08
3.74372e-08
3.6655e-08
3.63214e-08
3.37078e-08
3.77631e-08
3.11111e-08
5.16938e-08
8.26376e-08
8.74562e-08
2.3813e-08
1.50608e-08
1.05198e-08
6.94713e-09
4.69249e-09
4.64826e-09
5.01004e-09
5.63117e-09
6.2666e-09
7.15723e-09
9.76339e-09
1.18457e-08
1.30308e-08
1.46928e-08
1.6861e-08
1.90806e-08
2.10593e-08
2.28706e-08
2.4819e-08
2.67318e-08
2.85323e-08
3.05467e-08
3.27606e-08
3.50911e-08
3.74306e-08
3.96669e-08
4.17928e-08
4.41118e-08
4.66939e-08
4.92358e-08
5.17689e-08
5.46276e-08
5.79091e-08
6.17039e-08
6.55828e-08
6.96487e-08
7.36929e-08
7.74631e-08
8.24773e-08
8.89971e-08
9.58414e-08
1.0343e-07
1.11501e-07
1.18822e-07
1.26721e-07
1.3598e-07
1.46666e-07
1.60672e-07
1.77064e-07
1.97087e-07
2.19228e-07
2.3909e-07
2.38286e-07
2.37902e-07
2.37385e-07
2.36159e-07
2.34465e-07
2.32919e-07
2.31873e-07
2.31386e-07
2.31346e-07
2.31477e-07
2.14114e-07
1.98037e-07
1.83445e-07
1.70902e-07
1.60442e-07
1.51444e-07
1.44165e-07
1.37389e-07
1.30391e-07
1.24114e-07
1.1953e-07
1.16384e-07
1.13111e-07
1.10145e-07
1.0342e-07
1.09898e-07
9.34908e-08
1.07612e-07
9.24296e-08
1.03486e-07
8.80032e-08
1.04721e-07
1.11522e-07
3.16866e-08
1.51582e-08
6.26175e-09
1.08341e-08
2.19932e-09
2.54328e-09
4.40521e-09
1.08145e-08
1.05283e-08
1.02877e-08
5.53136e-09
3.29969e-09
2.77777e-09
3.1003e-09
2.89238e-09
3.09518e-09
3.66829e-09
4.57887e-09
6.77142e-09
1.09466e-08
1.59428e-08
2.06428e-08
3.23881e-08
4.9345e-08
5.99822e-08
7.85503e-08
1.08323e-07
1.45479e-07
1.82784e-07
2.18011e-07
2.50263e-07
2.79015e-07
3.03705e-07
3.21639e-07
3.45113e-07
3.62972e-07
3.7036e-07
3.76633e-07
3.83616e-07
3.8752e-07
3.82094e-07
3.62743e-07
3.35854e-07
3.14649e-07
2.97502e-07
2.78547e-07
2.48925e-07
2.19628e-07
1.93928e-07
1.76293e-07
1.65426e-07
1.57602e-07
1.51768e-07
1.24018e-07
1.17036e-07
1.19868e-07
9.56071e-08
8.87969e-08
1.07666e-07
1.25556e-07
1.10227e-07
7.1702e-08
5.68783e-08
4.93402e-08
5.06879e-08
5.84228e-08
5.88849e-08
5.43341e-08
4.20852e-08
3.905e-08
4.73546e-08
6.753e-08
1.00445e-07
1.25362e-07
1.18759e-07
1.10197e-07
1.01664e-07
9.53131e-08
8.97467e-08
6.46694e-08
7.34715e-08
1.17862e-07
1.3434e-07
1.41754e-07
1.47246e-07
1.5111e-07
1.55539e-07
1.64367e-07
1.77975e-07
1.99477e-07
2.20262e-07
2.30084e-07
2.2293e-07
2.12652e-07
1.91998e-07
1.70026e-07
1.51945e-07
1.35093e-07
1.19625e-07
1.07036e-07
9.82538e-08
9.55184e-08
1.00308e-07
1.13079e-07
1.24364e-07
1.29203e-07
1.24397e-07
1.15536e-07
1.03615e-07
8.9438e-08
7.46379e-08
6.34263e-08
5.63196e-08
4.75544e-08
3.25259e-08
3.51239e-08
2.15233e-08
4.03548e-08
3.48836e-08
6.4858e-08
3.28277e-08
4.75107e-08
4.57123e-08
4.87142e-08
3.67471e-08
3.78399e-08
1.8089e-08
1.24339e-08
1.64575e-08
2.42152e-08
3.19231e-08
3.23994e-08
7.30756e-08
4.77297e-08
9.87384e-08
8.2743e-08
3.37505e-07
3.89839e-07
1.70613e-07
8.33247e-08
6.39949e-08
7.359e-08
6.81754e-08
7.76065e-08
7.89298e-08
7.44511e-08
6.92777e-08
6.62845e-08
6.1872e-08
6.07583e-08
5.8746e-08
5.70273e-08
6.06213e-08
6.28727e-08
5.89716e-08
5.40995e-08
5.11194e-08
5.23146e-08
5.48184e-08
5.48272e-08
5.23998e-08
4.90671e-08
4.7606e-08
4.84143e-08
5.01151e-08
5.05878e-08
5.03829e-08
4.94136e-08
4.79637e-08
4.81661e-08
4.9343e-08
5.03773e-08
5.09035e-08
5.09596e-08
5.11342e-08
5.22414e-08
5.28781e-08
5.41901e-08
5.57566e-08
5.59896e-08
5.65166e-08
5.75205e-08
5.97052e-08
6.2661e-08
6.49355e-08
6.66467e-08
6.81011e-08
7.00356e-08
7.27207e-08
7.67741e-08
8.38613e-08
9.33323e-08
1.01502e-07
1.04709e-07
1.07377e-07
1.15485e-07
1.35438e-07
1.74837e-07
2.21777e-07
2.49819e-07
2.54778e-07
2.64772e-07
3.29297e-07
4.09899e-07
3.32322e-07
2.34507e-07
1.83333e-07
1.61361e-07
1.5068e-07
1.33808e-07
1.11173e-07
9.37465e-08
8.72188e-08
8.79283e-08
8.4287e-08
7.76078e-08
7.20938e-08
6.73503e-08
6.47403e-08
6.39272e-08
6.30218e-08
6.15041e-08
5.96731e-08
5.77241e-08
5.76838e-08
5.88065e-08
5.8409e-08
5.75446e-08
5.59228e-08
5.55529e-08
5.64267e-08
5.72338e-08
5.83534e-08
5.90419e-08
6.04675e-08
6.21536e-08
6.26247e-08
6.28914e-08
6.21796e-08
6.18381e-08
6.29924e-08
6.66358e-08
7.08788e-08
7.32728e-08
7.32511e-08
7.10187e-08
7.02717e-08
7.15824e-08
7.39752e-08
7.93471e-08
8.28906e-08
8.05106e-08
7.8322e-08
7.67644e-08
7.74033e-08
8.24266e-08
8.55298e-08
8.54215e-08
8.26458e-08
7.87558e-08
7.74112e-08
7.85789e-08
8.19189e-08
8.31823e-08
8.11047e-08
7.90621e-08
7.84027e-08
7.82151e-08
7.75446e-08
7.73489e-08
7.73068e-08
7.70829e-08
7.61118e-08
7.42291e-08
7.37798e-08
7.58971e-08
7.80781e-08
7.80538e-08
7.57871e-08
7.37766e-08
7.38956e-08
7.52212e-08
7.65916e-08
7.75826e-08
7.84005e-08
7.95102e-08
7.96815e-08
7.95144e-08
7.96473e-08
7.96491e-08
8.12501e-08
8.47242e-08
8.74091e-08
8.84948e-08
8.88447e-08
8.85452e-08
8.92281e-08
9.1957e-08
9.63569e-08
1.00166e-07
1.02557e-07
1.03309e-07
1.03648e-07
1.06504e-07
1.12338e-07
1.17726e-07
1.1943e-07
1.20459e-07
1.25088e-07
1.3443e-07
1.42669e-07
1.45633e-07
1.47614e-07
1.54213e-07
1.65804e-07
1.75457e-07
1.816e-07
1.83266e-07
1.8626e-07
1.99214e-07
2.1186e-07
2.17689e-07
2.18614e-07
2.16288e-07
2.157e-07
2.1717e-07
2.17873e-07
2.15095e-07
2.09012e-07
2.00648e-07
1.90782e-07
1.8205e-07
1.75707e-07
1.70185e-07
1.64821e-07
1.58526e-07
1.51801e-07
1.46204e-07
1.423e-07
1.38184e-07
1.3476e-07
1.32271e-07
1.30235e-07
1.29125e-07
1.27898e-07
1.261e-07
1.24788e-07
1.24148e-07
1.24099e-07
1.25866e-07
1.27795e-07
1.28964e-07
1.30008e-07
1.31283e-07
1.32981e-07
1.34924e-07
1.37432e-07
1.40667e-07
1.44574e-07
1.48426e-07
1.51887e-07
1.55046e-07
1.59409e-07
1.65771e-07
1.72088e-07
1.78037e-07
1.84326e-07
1.91633e-07
2.00566e-07
2.1062e-07
2.20997e-07
2.30572e-07
2.41226e-07
2.56572e-07
2.7393e-07
2.88894e-07
3.05655e-07
3.29979e-07
3.63674e-07
3.98923e-07
4.35099e-07
4.7647e-07
5.39643e-07
6.28008e-07
7.34269e-07
8.30419e-07
9.59393e-07
1.10533e-06
1.1913e-06
1.11024e-06
9.60399e-07
7.98095e-07
6.87987e-07
5.9936e-07
5.18852e-07
4.38038e-07
3.84301e-07
3.46859e-07
3.17869e-07
2.88935e-07
2.62024e-07
2.37652e-07
2.18226e-07
2.02476e-07
1.89613e-07
1.79076e-07
1.682e-07
1.57722e-07
1.48044e-07
1.39505e-07
1.27832e-07
1.23637e-07
1.14226e-07
1.13173e-07
1.07672e-07
1.07151e-07
1.04961e-07
9.36714e-08
9.08065e-08
7.94041e-08
8.03293e-08
1.0416e-07
1.13762e-07
7.79853e-08
6.14336e-08
3.98917e-08
3.88144e-08
2.66839e-08
2.32043e-08
2.84033e-08
3.41628e-08
4.70557e-08
4.70817e-08
7.83232e-08
7.17743e-08
5.72446e-08
4.96707e-08
4.21523e-08
7.01542e-08
9.33735e-08
5.3942e-08
3.33763e-08
2.65077e-08
1.83987e-08
1.78334e-08
1.17639e-08
9.59738e-09
1.10427e-08
1.31184e-08
1.85326e-08
1.99e-08
3.38041e-08
3.73808e-08
4.84104e-08
4.42681e-08
3.23106e-08
3.25612e-08
2.74167e-08
2.67648e-08
4.67335e-08
9.19632e-08
6.73577e-08
1.94297e-08
1.15347e-08
8.49896e-09
5.41801e-09
3.95253e-09
4.15217e-09
4.48135e-09
4.89979e-09
5.57011e-09
6.9255e-09
1.08376e-08
1.39035e-08
1.45615e-08
1.6111e-08
1.84731e-08
1.93648e-08
1.92141e-08
1.97031e-08
2.07745e-08
2.21132e-08
2.33283e-08
2.44084e-08
2.57988e-08
2.74031e-08
2.91229e-08
3.11147e-08
3.28711e-08
3.44269e-08
3.62569e-08
3.83508e-08
4.00203e-08
4.163e-08
4.38908e-08
4.6511e-08
4.88338e-08
5.07828e-08
5.3135e-08
5.63605e-08
6.01068e-08
6.42539e-08
6.75877e-08
7.15713e-08
7.63946e-08
8.05185e-08
8.5408e-08
9.33161e-08
1.03835e-07
1.15425e-07
1.2743e-07
1.39723e-07
1.53534e-07
1.70178e-07
1.90995e-07
2.17541e-07
2.42016e-07
2.80031e-07
3.33719e-07
3.53534e-07
3.43446e-07
3.38394e-07
3.30167e-07
3.1127e-07
2.81111e-07
2.47324e-07
2.18324e-07
1.95377e-07
1.77435e-07
1.62825e-07
1.50776e-07
1.40672e-07
1.32002e-07
1.24297e-07
1.17187e-07
1.11135e-07
1.06519e-07
1.03266e-07
1.00361e-07
9.6147e-08
9.3198e-08
8.79996e-08
9.52328e-08
7.98637e-08
9.17794e-08
7.94675e-08
8.95203e-08
7.41049e-08
8.54917e-08
8.95943e-08
2.64253e-08
1.28652e-08
5.24567e-09
9.11806e-09
1.81345e-09
2.57558e-09
3.78067e-09
8.7459e-09
8.14436e-09
6.8814e-09
4.13766e-09
3.05882e-09
3.25619e-09
4.07904e-09
4.35625e-09
5.57586e-09
1.79909e-08
2.58891e-08
4.12807e-08
8.23676e-08
7.90273e-08
7.7942e-08
7.97912e-08
8.61871e-08
1.0137e-07
1.24059e-07
1.49847e-07
1.71945e-07
1.91703e-07
2.08491e-07
2.21328e-07
2.28905e-07
2.30539e-07
2.40667e-07
2.62624e-07
2.95068e-07
3.2595e-07
3.35525e-07
3.30643e-07
3.17708e-07
2.9877e-07
2.75937e-07
2.5305e-07
2.35848e-07
2.21177e-07
2.02246e-07
1.81469e-07
1.6385e-07
1.49574e-07
1.39092e-07
1.24543e-07
9.25397e-08
7.66646e-08
7.15137e-08
7.91474e-08
8.72494e-08
7.31949e-08
5.86943e-08
5.98691e-08
6.43048e-08
6.67959e-08
6.70467e-08
6.74834e-08
6.52534e-08
6.72103e-08
5.45511e-08
2.97049e-08
2.15411e-08
1.90151e-08
2.03719e-08
2.31398e-08
2.73034e-08
3.96268e-08
6.9156e-08
1.06596e-07
1.04246e-07
1.02471e-07
1.00871e-07
6.9659e-08
4.84406e-08
4.04962e-08
5.40019e-08
9.84865e-08
1.1052e-07
1.16787e-07
1.23563e-07
1.29588e-07
1.38422e-07
1.48508e-07
1.59143e-07
1.72786e-07
1.8471e-07
1.92771e-07
1.96515e-07
1.93083e-07
1.81122e-07
1.69027e-07
1.48907e-07
1.31603e-07
1.20092e-07
1.09108e-07
9.98637e-08
9.38083e-08
9.26212e-08
9.53268e-08
9.90615e-08
1.00352e-07
9.81433e-08
9.3255e-08
8.6384e-08
7.89068e-08
7.17511e-08
5.28128e-08
3.29131e-08
3.12458e-08
2.95477e-08
2.99777e-08
2.5015e-08
3.29677e-08
2.25025e-08
4.34771e-08
3.00569e-08
6.76114e-08
3.35264e-08
3.97935e-08
2.99521e-08
3.43942e-08
2.34687e-08
2.49603e-08
1.25579e-08
9.21619e-09
1.27075e-08
2.0271e-08
2.98325e-08
3.13608e-08
6.50063e-08
4.50214e-08
7.31523e-08
6.03543e-08
4.4391e-08
8.09623e-08
1.24915e-07
6.66734e-08
5.20247e-08
5.68468e-08
5.49423e-08
6.06669e-08
5.99482e-08
5.21075e-08
4.83337e-08
4.65623e-08
4.76128e-08
5.28906e-08
5.22476e-08
4.7514e-08
4.30908e-08
4.15946e-08
4.37402e-08
4.51803e-08
4.30114e-08
4.14761e-08
4.00162e-08
3.90276e-08
3.85623e-08
3.89116e-08
3.98862e-08
3.97161e-08
3.8588e-08
3.78424e-08
3.82989e-08
3.90254e-08
3.90616e-08
3.94159e-08
4.02904e-08
4.01468e-08
4.0032e-08
4.07606e-08
4.19241e-08
4.32432e-08
4.37992e-08
4.4323e-08
4.52019e-08
4.6604e-08
4.85001e-08
4.96604e-08
5.08732e-08
5.3361e-08
5.62302e-08
5.86974e-08
6.09014e-08
6.46985e-08
7.15512e-08
8.01164e-08
8.52255e-08
8.87765e-08
9.29527e-08
1.01054e-07
1.23263e-07
1.60343e-07
1.87532e-07
1.86189e-07
1.79151e-07
1.97574e-07
2.4155e-07
2.22661e-07
1.7484e-07
1.52977e-07
1.42487e-07
1.30321e-07
1.10538e-07
9.1799e-08
8.18942e-08
8.16134e-08
8.37412e-08
7.73952e-08
7.00487e-08
6.46175e-08
6.01186e-08
5.91089e-08
6.03317e-08
6.09958e-08
5.85086e-08
5.50038e-08
5.26301e-08
5.29301e-08
5.572e-08
5.68693e-08
5.64891e-08
5.43233e-08
5.25259e-08
5.26064e-08
5.32517e-08
5.53143e-08
5.84706e-08
5.98885e-08
5.94435e-08
5.97173e-08
5.99998e-08
5.95735e-08
6.04892e-08
6.29106e-08
6.7545e-08
7.07965e-08
7.01759e-08
6.88039e-08
6.79738e-08
6.87326e-08
7.12438e-08
7.58111e-08
8.12025e-08
8.24674e-08
7.87299e-08
7.57195e-08
7.53426e-08
7.70167e-08
8.19012e-08
8.50301e-08
8.3581e-08
8.04011e-08
7.74539e-08
7.82015e-08
8.0793e-08
8.1232e-08
8.0261e-08
7.86125e-08
7.65547e-08
7.65389e-08
7.84357e-08
7.82191e-08
7.70625e-08
7.61538e-08
7.51845e-08
7.35531e-08
7.20875e-08
7.26584e-08
7.52008e-08
7.68178e-08
7.66795e-08
7.56023e-08
7.34785e-08
7.23927e-08
7.26564e-08
7.38324e-08
7.66043e-08
7.89987e-08
7.99349e-08
7.88271e-08
7.67336e-08
7.67636e-08
7.82849e-08
8.09887e-08
8.4213e-08
8.63482e-08
8.69164e-08
8.62022e-08
8.64195e-08
8.88127e-08
9.17143e-08
9.4903e-08
9.76875e-08
1.00418e-07
1.02892e-07
1.04379e-07
1.07051e-07
1.11324e-07
1.14733e-07
1.16661e-07
1.20562e-07
1.26715e-07
1.33602e-07
1.39841e-07
1.43669e-07
1.47605e-07
1.53823e-07
1.62864e-07
1.71176e-07
1.7611e-07
1.79838e-07
1.84612e-07
1.94027e-07
2.0488e-07
2.09446e-07
2.08273e-07
2.0809e-07
2.10586e-07
2.11356e-07
2.11062e-07
2.08034e-07
2.02979e-07
1.96999e-07
1.88628e-07
1.79912e-07
1.72427e-07
1.67181e-07
1.63862e-07
1.58552e-07
1.50882e-07
1.44039e-07
1.40666e-07
1.37997e-07
1.35031e-07
1.32479e-07
1.29944e-07
1.27991e-07
1.26353e-07
1.24369e-07
1.22922e-07
1.22673e-07
1.23325e-07
1.2505e-07
1.2642e-07
1.27358e-07
1.28612e-07
1.30163e-07
1.31631e-07
1.32807e-07
1.34914e-07
1.38417e-07
1.42725e-07
1.46499e-07
1.4971e-07
1.52953e-07
1.57595e-07
1.63581e-07
1.6927e-07
1.74976e-07
1.80939e-07
1.87948e-07
1.96619e-07
2.06149e-07
2.15857e-07
2.25277e-07
2.35411e-07
2.50641e-07
2.68271e-07
2.83177e-07
2.95589e-07
3.14798e-07
3.44648e-07
3.78974e-07
4.13259e-07
4.49377e-07
4.95993e-07
5.56714e-07
6.20639e-07
6.82364e-07
7.40924e-07
8.13443e-07
8.3001e-07
7.80759e-07
6.94717e-07
6.34131e-07
5.75228e-07
5.26238e-07
4.61711e-07
3.99564e-07
3.56954e-07
3.27156e-07
3.02799e-07
2.76258e-07
2.51303e-07
2.27661e-07
2.11045e-07
1.95743e-07
1.85603e-07
1.75889e-07
1.65419e-07
1.5204e-07
1.43258e-07
1.32975e-07
1.28931e-07
1.28944e-07
1.25236e-07
1.15467e-07
1.06672e-07
9.92758e-08
8.66814e-08
8.6736e-08
1.0816e-07
1.19212e-07
9.01925e-08
6.72596e-08
4.05614e-08
3.98993e-08
2.849e-08
2.45961e-08
2.91128e-08
3.43018e-08
4.82678e-08
4.94872e-08
8.05838e-08
9.1333e-08
6.68928e-08
5.48818e-08
4.92914e-08
8.65398e-08
1.06119e-07
4.22708e-08
2.81466e-08
2.07987e-08
1.63608e-08
1.47384e-08
1.12731e-08
9.16482e-09
1.06161e-08
1.2303e-08
1.7234e-08
1.85e-08
3.1722e-08
4.62475e-08
8.75926e-08
8.94904e-08
4.34714e-08
4.39611e-08
2.86196e-08
4.73066e-08
1.24395e-07
1.69924e-07
2.35249e-08
1.52674e-08
9.56068e-09
7.52427e-09
4.92067e-09
3.889e-09
4.14648e-09
4.29966e-09
4.56715e-09
5.18923e-09
6.76944e-09
1.14652e-08
1.93825e-08
2.76302e-08
3.17881e-08
2.55786e-08
2.18609e-08
2.04805e-08
2.04435e-08
2.0816e-08
2.10753e-08
2.15195e-08
2.22996e-08
2.33692e-08
2.45818e-08
2.56522e-08
2.69147e-08
2.84002e-08
2.99447e-08
3.15953e-08
3.30048e-08
3.43408e-08
3.61213e-08
3.81364e-08
3.98475e-08
4.16503e-08
4.39228e-08
4.62818e-08
4.82967e-08
5.01305e-08
5.25372e-08
5.58954e-08
5.96369e-08
6.37716e-08
6.74241e-08
7.03995e-08
7.34175e-08
7.71403e-08
8.23291e-08
8.98126e-08
9.93439e-08
1.08979e-07
1.18354e-07
1.28135e-07
1.3883e-07
1.51574e-07
1.67717e-07
1.85989e-07
2.00848e-07
2.17659e-07
2.35361e-07
2.42489e-07
2.41775e-07
2.40819e-07
2.37364e-07
2.29005e-07
2.16713e-07
2.02343e-07
1.88098e-07
1.74334e-07
1.61374e-07
1.49845e-07
1.39767e-07
1.31492e-07
1.24521e-07
1.17707e-07
1.11449e-07
1.06635e-07
1.0328e-07
1.00368e-07
9.68932e-08
9.26436e-08
9.06859e-08
8.66507e-08
9.30268e-08
7.72913e-08
8.86677e-08
7.73793e-08
8.65535e-08
7.21519e-08
8.35871e-08
8.84157e-08
2.62102e-08
1.278e-08
5.20093e-09
9.04687e-09
1.62696e-09
2.53489e-09
3.38929e-09
6.81435e-09
6.24465e-09
5.3843e-09
3.6545e-09
3.0422e-09
3.58945e-09
4.46457e-09
5.40937e-09
6.8606e-09
1.12068e-08
2.1738e-08
3.95863e-08
5.99652e-08
1.03018e-07
1.0618e-07
1.12835e-07
1.22388e-07
1.33751e-07
1.4533e-07
1.56073e-07
1.65046e-07
1.71495e-07
1.75156e-07
1.76624e-07
1.81312e-07
1.95591e-07
2.17328e-07
2.37624e-07
2.55615e-07
2.60034e-07
2.53813e-07
2.40936e-07
2.26624e-07
2.13516e-07
2.02029e-07
1.91256e-07
1.80491e-07
1.68985e-07
1.57344e-07
1.48255e-07
1.4131e-07
1.36399e-07
1.25939e-07
7.44384e-08
4.90315e-08
4.31e-08
4.71641e-08
5.7332e-08
6.68322e-08
5.19065e-08
3.47986e-08
3.18682e-08
3.67042e-08
5.06782e-08
7.91208e-08
6.99897e-08
6.46852e-08
5.66063e-08
3.90564e-08
2.014e-08
1.50636e-08
1.52316e-08
1.73337e-08
1.71295e-08
1.48351e-08
1.69025e-08
2.56408e-08
4.30458e-08
7.23058e-08
1.27138e-07
1.17781e-07
6.10554e-08
4.50533e-08
3.20396e-08
3.05342e-08
4.32602e-08
7.62348e-08
1.14873e-07
1.16372e-07
1.18886e-07
1.23829e-07
1.31082e-07
1.38809e-07
1.48521e-07
1.59062e-07
1.669e-07
1.71133e-07
1.72292e-07
1.69039e-07
1.61939e-07
1.51308e-07
1.38926e-07
1.26471e-07
1.14667e-07
1.05296e-07
9.80944e-08
9.36071e-08
9.21396e-08
9.30718e-08
9.47734e-08
9.55906e-08
9.46103e-08
9.21051e-08
8.86769e-08
8.49061e-08
8.15948e-08
5.38619e-08
3.80308e-08
2.56333e-08
1.98028e-08
2.14866e-08
2.38566e-08
2.77035e-08
2.49136e-08
3.48741e-08
2.32513e-08
4.61843e-08
2.49987e-08
4.27711e-08
3.69609e-08
4.28749e-08
2.91913e-08
2.93315e-08
1.96925e-08
2.13423e-08
1.15069e-08
8.34557e-09
1.1639e-08
2.06964e-08
2.87424e-08
3.32712e-08
4.72121e-07
4.29892e-08
2.94756e-08
4.38741e-08
3.84896e-08
6.14601e-08
8.35685e-08
6.12441e-08
5.46616e-08
5.2304e-08
4.50822e-08
4.59089e-08
4.68974e-08
4.93927e-08
5.20808e-08
4.79151e-08
4.2615e-08
3.99954e-08
4.0846e-08
4.28338e-08
4.26225e-08
4.02941e-08
3.84455e-08
3.79819e-08
3.81944e-08
3.75201e-08
3.67005e-08
3.73905e-08
3.71181e-08
3.61203e-08
3.61362e-08
3.6707e-08
3.69242e-08
3.68713e-08
3.70133e-08
3.77331e-08
3.80286e-08
3.77808e-08
3.84838e-08
3.95124e-08
4.01847e-08
4.10623e-08
4.22094e-08
4.33396e-08
4.44689e-08
4.54935e-08
4.60734e-08
4.75544e-08
5.05083e-08
5.38084e-08
5.65822e-08
5.7816e-08
6.00287e-08
6.4976e-08
7.29288e-08
8.03382e-08
8.51136e-08
8.92757e-08
9.25374e-08
1.02278e-07
1.25237e-07
1.50711e-07
1.58896e-07
1.54749e-07
1.56083e-07
1.74113e-07
1.78153e-07
1.57924e-07
1.42465e-07
1.30059e-07
1.14871e-07
9.71292e-08
8.54743e-08
8.25217e-08
8.46063e-08
8.3396e-08
7.45968e-08
6.72705e-08
6.18399e-08
5.85162e-08
5.88743e-08
6.04623e-08
6.04897e-08
5.68918e-08
5.32577e-08
5.16976e-08
5.18161e-08
5.40023e-08
5.52641e-08
5.49424e-08
5.42968e-08
5.30607e-08
5.21307e-08
5.20804e-08
5.37157e-08
5.71013e-08
5.86251e-08
5.76833e-08
5.7994e-08
5.92969e-08
6.03243e-08
6.08943e-08
6.31812e-08
6.72859e-08
6.85651e-08
6.76702e-08
6.70779e-08
6.76967e-08
7.0118e-08
7.42302e-08
7.85955e-08
8.04889e-08
7.98466e-08
7.72809e-08
7.55778e-08