/*--------------------------------*- C++ -*----------------------------------*\
| =========                 |                                                 |
| \\      /  F ield         | OpenFOAM: The Open Source CFD Toolbox           |
|  \\    /   O peration     | Version:  v2006                                 |
|   \\  /    A nd           | Website:  www.openfoam.com                      |
|    \\/     M anipulation  |                                                 |
\*---------------------------------------------------------------------------*/
FoamFile
{
    version     2.0;
    format      ascii;
    class       surfaceScalarField;
    location    "6.6";
    object      alphaPhi0.water;
}
// * * * * * * * * * * * * * * * * * * * * * * * * * * * * * * * * * * * * * //

dimensions      [0 3 -1 0 0 0 0];
oriented        oriented;


internalField   nonuniform List<scalar> 
65390
(
4.31949e-05
2.97592e-07
4.45526e-05
-1.35782e-06
5.02091e-05
-5.65665e-06
5.68294e-05
-6.62043e-06
6.14595e-05
-4.63017e-06
6.40524e-05
-2.59306e-06
6.60863e-05
-2.0339e-06
6.80013e-05
-1.91502e-06
6.98759e-05
-1.87471e-06
7.13247e-05
-1.44878e-06
7.28966e-05
-1.57184e-06
7.47991e-05
-1.90254e-06
7.69198e-05
-2.12077e-06
7.92998e-05
-2.38e-06
8.16612e-05
-2.36139e-06
8.31995e-05
-1.53833e-06
8.2473e-05
7.26409e-07
7.94029e-05
3.07002e-06
7.55277e-05
3.8751e-06
6.95956e-05
5.93183e-06
6.03069e-05
9.28829e-06
5.10883e-05
9.21272e-06
4.49065e-05
6.17741e-06
4.04946e-05
4.41469e-06
3.74643e-05
3.03307e-06
3.54268e-05
2.03749e-06
3.34354e-05
1.99133e-06
3.12256e-05
2.20919e-06
2.87615e-05
2.45903e-06
2.62684e-05
2.48015e-06
2.41626e-05
2.10582e-06
2.2281e-05
1.88907e-06
2.04448e-05
1.84132e-06
1.90296e-05
1.41593e-06
1.83394e-05
6.90215e-07
1.78202e-05
5.19216e-07
1.67667e-05
1.05092e-06
1.48531e-05
1.90539e-06
1.25395e-05
2.31355e-06
1.08528e-05
1.69304e-06
1.01843e-05
6.69582e-07
9.77494e-06
4.09332e-07
9.10614e-06
6.68753e-07
7.95939e-06
1.14527e-06
6.30151e-06
1.65534e-06
4.57815e-06
1.72364e-06
3.41508e-06
1.16442e-06
2.86149e-06
5.53914e-07
2.44859e-06
4.12868e-07
1.99301e-06
4.55557e-07
1.54148e-06
4.5149e-07
1.11463e-06
4.26847e-07
6.50352e-07
4.6429e-07
-2.11222e-07
8.61563e-07
-1.57814e-06
1.36703e-06
-3.21761e-06
1.64054e-06
-4.78616e-06
1.56856e-06
-6.00755e-06
1.21923e-06
-6.90717e-06
8.98697e-07
-7.85467e-06
9.47438e-07
-9.05036e-06
1.19563e-06
-1.0108e-05
1.05738e-06
-1.04568e-05
3.48808e-07
-1.00677e-05
-3.89128e-07
-9.35584e-06
-7.11819e-07
-8.60269e-06
-7.52946e-07
-7.97053e-06
-6.31481e-07
-7.33061e-06
-6.38163e-07
-6.49534e-06
-8.33472e-07
-5.2363e-06
-1.25916e-06
-3.35656e-06
-1.88014e-06
-6.4838e-07
-2.70948e-06
2.6736e-06
-3.32294e-06
6.14545e-06
-3.47248e-06
9.32078e-06
-3.17428e-06
1.14143e-05
-2.09329e-06
1.16321e-05
-2.17696e-07
8.02267e-06
3.60935e-06
4.62512e-06
3.39764e-06
2.83454e-06
1.79061e-06
-9.21842e-08
2.92675e-06
-1.62352e-06
1.53138e-06
-3.15961e-06
1.53614e-06
-3.68834e-06
5.28764e-07
-4.12674e-06
4.38428e-07
-4.52016e-06
3.93597e-07
-4.74574e-06
2.26e-07
-4.89419e-06
1.48623e-07
-4.90878e-06
1.47705e-08
-4.82558e-06
-8.4119e-08
-4.45064e-06
-3.74974e-07
-3.83342e-06
-6.1718e-07
-2.92741e-06
-9.05949e-07
-1.63888e-06
-1.28834e-06
2.68768e-07
-1.90746e-06
2.60144e-06
-2.33273e-06
5.36912e-06
-2.76806e-06
8.20545e-06
-2.83706e-06
1.04973e-05
-2.29208e-06
1.14972e-05
-9.99886e-07
1.14702e-05
2.70087e-08
1.10301e-05
4.40173e-07
1.0295e-05
7.35117e-07
9.71338e-06
5.83371e-07
8.97929e-06
7.34417e-07
8.46011e-06
5.19163e-07
8.20845e-06
2.51657e-07
7.87343e-06
3.34278e-07
7.42037e-06
4.51676e-07
6.95484e-06
4.65531e-07
6.51079e-06
4.45493e-07
6.09534e-06
4.15861e-07
5.8099e-06
2.85433e-07
5.66139e-06
1.48037e-07
5.72905e-06
-6.80001e-08
5.92802e-06
-1.99075e-07
6.25492e-06
-3.26795e-07
6.28962e-06
-3.41996e-08
5.92187e-06
3.67978e-07
5.437e-06
4.84876e-07
4.85165e-06
5.85172e-07
4.29929e-06
5.51494e-07
3.6163e-06
6.83006e-07
3.00013e-06
6.16702e-07
2.47559e-06
5.24632e-07
1.93573e-06
5.39862e-07
1.40854e-06
5.27168e-07
8.74839e-07
5.33682e-07
3.13479e-07
5.6123e-07
-2.26679e-07
5.40205e-07
-7.3994e-07
5.13176e-07
-1.2356e-06
4.95571e-07
-1.71267e-06
4.77057e-07
-2.19693e-06
4.84238e-07
-2.67449e-06
4.77532e-07
-3.14762e-06
4.7312e-07
-3.60959e-06
4.61956e-07
-4.05711e-06
4.47516e-07
-4.50278e-06
4.4612e-07
-4.94249e-06
4.40234e-07
-5.37654e-06
4.34049e-07
-5.79833e-06
4.21779e-07
-6.20772e-06
4.08252e-07
-6.59712e-06
3.89394e-07
-6.97414e-06
3.77032e-07
-7.34458e-06
3.70428e-07
-7.71022e-06
3.65862e-07
-8.06963e-06
3.60284e-07
-8.41866e-06
3.47944e-07
-8.74467e-06
3.25659e-07
-9.05796e-06
3.13285e-07
-9.36547e-06
3.07507e-07
-9.666e-06
3.01348e-07
-9.95895e-06
2.9295e-07
-1.02391e-05
2.80192e-07
-1.05094e-05
2.69117e-07
-1.07674e-05
2.57908e-07
-1.10151e-05
2.47627e-07
-1.1253e-05
2.37903e-07
-1.14798e-05
2.26733e-07
-1.16969e-05
2.17522e-07
-1.19076e-05
2.11008e-07
-1.21084e-05
2.00227e-07
-1.22929e-05
1.84523e-07
-1.24666e-05
1.73708e-07
-1.26343e-05
1.67976e-07
-1.27955e-05
1.61137e-07
-1.29426e-05
1.46601e-07
-1.30735e-05
1.30957e-07
-1.31949e-05
1.21383e-07
-1.33102e-05
1.15777e-07
-1.34178e-05
1.08537e-07
-1.35168e-05
9.76786e-08
-1.35987e-05
8.19748e-08
-1.36683e-05
6.94301e-08
-1.3728e-05
6.00335e-08
-1.37811e-05
5.37813e-08
-1.38267e-05
4.60301e-08
-1.38634e-05
3.71477e-08
-1.38922e-05
2.83175e-08
-1.39135e-05
1.98432e-08
-1.39239e-05
1.03554e-08
-1.39217e-05
-2.19656e-09
-1.39067e-05
-1.42672e-08
-1.38845e-05
-2.15343e-08
-1.38574e-05
-2.7092e-08
-1.38267e-05
-3.13014e-08
-1.37903e-05
-3.72513e-08
-1.37433e-05
-4.69877e-08
-1.36863e-05
-5.69905e-08
-1.36201e-05
-6.57164e-08
-1.35465e-05
-7.23791e-08
-1.34703e-05
-7.62026e-08
-1.33892e-05
-8.10899e-08
-1.33039e-05
-8.69525e-08
-1.321e-05
-9.41621e-08
-1.3107e-05
-1.03012e-07
-1.29951e-05
-1.11862e-07
-1.28769e-05
-1.18294e-07
-1.27557e-05
-1.20372e-07
-1.26343e-05
-1.20728e-07
-1.25099e-05
-1.24369e-07
-1.23793e-05
-1.312e-07
-1.22389e-05
-1.41245e-07
-1.20901e-05
-1.48792e-07
-1.19381e-05
-1.52002e-07
-1.17845e-05
-1.53479e-07
-1.16283e-05
-1.5584e-07
-1.14677e-05
-1.60917e-07
-1.12977e-05
-1.69985e-07
-1.11221e-05
-1.756e-07
-1.09466e-05
-1.75282e-07
-1.07748e-05
-1.71344e-07
-1.06007e-05
-1.74753e-07
-1.04121e-05
-1.88683e-07
-1.02156e-05
-1.96677e-07
-1.00163e-05
-1.99175e-07
-9.81755e-06
-1.98378e-07
-9.62633e-06
-1.91012e-07
-9.43883e-06
-1.87497e-07
-9.24772e-06
-1.9175e-07
-9.04799e-06
-1.99878e-07
-8.84273e-06
-2.05283e-07
-8.63844e-06
-2.04284e-07
-8.43981e-06
-1.98342e-07
-8.2533e-06
-1.8636e-07
-8.07282e-06
-1.80471e-07
-7.89355e-06
-1.79741e-07
-7.71394e-06
-1.79647e-07
-7.53302e-06
-1.80961e-07
-7.35549e-06
-1.77567e-07
-7.18757e-06
-1.67772e-07
-7.03449e-06
-1.53074e-07
-6.88817e-06
-1.46319e-07
-6.74256e-06
-1.45631e-07
-6.60021e-06
-1.42323e-07
-6.46077e-06
-1.39332e-07
-6.32541e-06
-1.35361e-07
-6.19702e-06
-1.28395e-07
-6.07562e-06
-1.2163e-07
-5.95936e-06
-1.16279e-07
-5.84992e-06
-1.09418e-07
-5.74774e-06
-1.0204e-07
-5.65e-06
-9.76182e-08
-5.55253e-06
-9.77575e-08
-5.4528e-06
-9.98066e-08
-5.35323e-06
-9.95652e-08
-5.25763e-06
-9.55824e-08
-5.17201e-06
-8.55187e-08
-5.09096e-06
-8.09104e-08
-5.00398e-06
-8.71641e-08
-4.91164e-06
-9.23767e-08
-4.81917e-06
-9.24704e-08
-4.72732e-06
-9.18404e-08
-4.63778e-06
-8.92923e-08
-4.54985e-06
-8.79407e-08
-4.45782e-06
-9.20643e-08
-4.3614e-06
-9.65789e-08
-4.26131e-06
-1.00097e-07
-4.15722e-06
-1.04099e-07
-4.05122e-06
-1.0597e-07
-3.94322e-06
-1.07981e-07
-3.83053e-06
-1.12666e-07
-3.71174e-06
-1.18888e-07
-3.58537e-06
-1.26426e-07
-3.45368e-06
-1.31706e-07
-3.32055e-06
-1.33106e-07
-3.18709e-06
-1.33447e-07
-3.04871e-06
-1.38333e-07
-2.90082e-06
-1.47992e-07
-2.74378e-06
-1.57051e-07
-2.58095e-06
-1.62828e-07
-2.41276e-06
-1.68185e-07
-2.24025e-06
-1.72455e-07
-2.06594e-06
-1.74336e-07
-1.88733e-06
-1.78559e-07
-1.70226e-06
-1.85097e-07
-1.51065e-06
-1.91608e-07
-1.31305e-06
-1.97611e-07
-1.11027e-06
-2.02777e-07
-9.02701e-07
-2.07571e-07
-6.90705e-07
-2.11996e-07
-4.76707e-07
-2.13996e-07
-2.62377e-07
-2.14335e-07
-4.40536e-08
-2.18331e-07
1.79502e-07
-2.23564e-07
4.06052e-07
-2.2656e-07
6.34631e-07
-2.28591e-07
8.65087e-07
-2.30472e-07
1.09694e-06
-2.31887e-07
1.3291e-06
-2.32197e-07
1.56224e-06
-2.33144e-07
1.79706e-06
-2.34817e-07
2.03335e-06
-2.36298e-07
2.27057e-06
-2.37224e-07
2.50808e-06
-2.37517e-07
2.74484e-06
-2.36789e-07
2.98059e-06
-2.35749e-07
3.21578e-06
-2.35172e-07
3.45031e-06
-2.34529e-07
3.68432e-06
-2.3402e-07
3.9172e-06
-2.32886e-07
4.14752e-06
-2.30356e-07
4.37534e-06
-2.27857e-07
4.60118e-06
-2.2584e-07
4.82467e-06
-2.23507e-07
5.04528e-06
-2.20677e-07
5.26238e-06
-2.17164e-07
5.47584e-06
-2.13474e-07
5.68571e-06
-2.0989e-07
5.89198e-06
-2.06271e-07
6.09391e-06
-2.01927e-07
6.29052e-06
-1.96614e-07
6.48177e-06
-1.91253e-07
6.6682e-06
-1.8638e-07
6.84964e-06
-1.81415e-07
7.02541e-06
-1.75778e-07
7.19506e-06
-1.69658e-07
7.35846e-06
-1.63417e-07
7.51559e-06
-1.57117e-07
7.66631e-06
-1.50709e-07
7.81032e-06
-1.43995e-07
7.94719e-06
-1.36873e-07
8.07689e-06
-1.29701e-07
8.19964e-06
-1.22704e-07
8.31517e-06
-1.15533e-07
8.42309e-06
-1.0792e-07
8.52306e-06
-1.0003e-07
8.61546e-06
-9.24164e-08
8.70041e-06
-8.49584e-08
8.77787e-06
-7.74689e-08
8.84743e-06
-6.95783e-08
8.90849e-06
-6.11448e-08
8.9614e-06
-5.29173e-08
9.00669e-06
-4.52655e-08
9.04457e-06
-3.78756e-08
9.07492e-06
-3.03426e-08
9.09757e-06
-2.2657e-08
9.11244e-06
-1.48803e-08
9.11955e-06
-7.10437e-09
9.11924e-06
3.3418e-10
9.11178e-06
7.49208e-09
9.09727e-06
1.45157e-08
9.07567e-06
2.16156e-08
9.04682e-06
2.88473e-08
9.01099e-06
3.5812e-08
8.96871e-06
4.22973e-08
8.92025e-06
4.84924e-08
8.86562e-06
5.46547e-08
8.80463e-06
6.10063e-08
8.73724e-06
6.74078e-08
8.66401e-06
7.32492e-08
8.58557e-06
7.8481e-08
8.50169e-06
8.39012e-08
8.41215e-06
8.95279e-08
8.31745e-06
9.46947e-08
8.21785e-06
9.95859e-08
8.11345e-06
1.04368e-07
8.00442e-06
1.08986e-07
7.89095e-06
1.13415e-07
7.77319e-06
1.17707e-07
7.65129e-06
1.21853e-07
7.52541e-06
1.2582e-07
7.39559e-06
1.29766e-07
7.26185e-06
1.33696e-07
7.12435e-06
1.37443e-07
6.98352e-06
1.40805e-07
6.83959e-06
1.43909e-07
6.69261e-06
1.46936e-07
6.54248e-06
1.50099e-07
6.3892e-06
1.53239e-07
6.23313e-06
1.56021e-07
6.07472e-06
1.58364e-07
5.91415e-06
1.60536e-07
5.75118e-06
1.62939e-07
5.58594e-06
1.65217e-07
5.41862e-06
1.67307e-07
5.24936e-06
1.69259e-07
5.07801e-06
1.71348e-07
4.90473e-06
1.73326e-07
4.73006e-06
1.74708e-07
4.55454e-06
1.7556e-07
4.37812e-06
1.76448e-07
4.20065e-06
1.77491e-07
4.02219e-06
1.78463e-07
3.8429e-06
1.79268e-07
3.66281e-06
1.80063e-07
3.48255e-06
1.80214e-07
3.30247e-06
1.8002e-07
3.12245e-06
1.79964e-07
2.9422e-06
1.80183e-07
2.76226e-06
1.79908e-07
2.58333e-06
1.78912e-07
2.40549e-06
1.77827e-07
2.22863e-06
1.76867e-07
2.05318e-06
1.75469e-07
1.879e-06
1.74215e-07
1.70605e-06
1.72979e-07
1.53475e-06
1.71343e-07
1.36572e-06
1.69078e-07
1.19945e-06
1.66295e-07
1.03626e-06
1.63209e-07
8.75726e-07
1.60548e-07
7.18095e-07
1.57638e-07
5.63345e-07
1.54752e-07
4.11955e-07
1.51392e-07
2.64621e-07
1.47331e-07
1.21856e-07
1.42762e-07
-1.66996e-08
1.38553e-07
-1.51051e-07
1.34352e-07
-2.81703e-07
1.30659e-07
-4.0811e-07
1.26424e-07
-5.30662e-07
1.22574e-07
-6.47992e-07
1.1736e-07
-7.61348e-07
1.13389e-07
-8.70322e-07
1.09007e-07
-9.75349e-07
1.05056e-07
-1.07746e-06
1.02137e-07
-1.17572e-06
9.82683e-08
-1.2693e-06
9.35938e-08
-1.3581e-06
8.88071e-08
-1.44069e-06
8.25851e-08
-1.52055e-06
7.98743e-08
-1.5949e-06
7.43499e-08
-1.66527e-06
7.03755e-08
-1.74635e-06
8.10935e-08
-1.80995e-06
6.36133e-08
-1.86748e-06
5.75381e-08
-1.92814e-06
6.06801e-08
-1.96543e-06
3.72949e-08
-1.96588e-06
4.6555e-10
-1.96421e-06
-1.64865e-09
-1.98685e-06
2.26462e-08
-2.01239e-06
2.55597e-08
-2.04814e-06
3.57537e-08
-2.07944e-06
3.13088e-08
-2.10447e-06
2.50348e-08
-2.12258e-06
1.81169e-08
-2.13923e-06
1.66445e-08
-2.15133e-06
1.20991e-08
-2.15697e-06
5.64306e-09
-2.19442e-06
3.74481e-08
-2.23564e-06
4.12167e-08
-2.24703e-06
1.138e-08
-2.26177e-06
1.4738e-08
-2.21311e-06
-4.866e-08
-2.13142e-06
-8.16961e-08
-1.90419e-06
-2.27229e-07
-1.58e-06
-3.24196e-07
-1.32706e-06
-2.52939e-07
-1.11616e-06
-2.10904e-07
-9.78692e-07
-1.37473e-07
-8.5703e-07
-1.21664e-07
-7.63504e-07
-9.35298e-08
-6.75874e-07
-8.7634e-08
-6.04681e-07
-7.11971e-08
-5.40134e-07
-6.45508e-08
-4.69561e-07
-7.05771e-08
-4.16995e-07
-5.25688e-08
-3.58011e-07
-5.89858e-08
-2.79872e-07
-7.81405e-08
-2.53562e-07
-2.6312e-08
-1.93444e-07
-6.01196e-08
-8.11162e-08
-1.1233e-07
-1.40927e-07
5.98081e-08
-4.50073e-08
-9.59235e-08
-2.26385e-08
-2.23724e-08
1.59056e-07
-1.81702e-07
3.14712e-08
1.2758e-07
-9.83789e-08
1.29846e-07
2.1661e-07
-3.15e-07
5.4739e-07
-3.30811e-07
8.26262e-07
-2.78916e-07
1.04553e-06
-2.19283e-07
1.22685e-06
-1.81339e-07
1.39193e-06
-1.65093e-07
1.54391e-06
-1.52008e-07
1.68417e-06
-1.40293e-07
1.81482e-06
-1.30667e-07
1.9435e-06
-1.28698e-07
2.07151e-06
-1.28015e-07
2.19472e-06
-1.2323e-07
2.31652e-06
-1.21826e-07
2.43735e-06
-1.20845e-07
2.55488e-06
-1.17529e-07
2.67464e-06
-1.19774e-07
2.79455e-06
-1.19917e-07
2.91239e-06
-1.17853e-07
3.02759e-06
-1.15193e-07
3.14658e-06
-1.18996e-07
3.26749e-06
-1.2091e-07
3.38568e-06
-1.18205e-07
3.50098e-06
-1.15304e-07
3.61548e-06
-1.14497e-07
3.73148e-06
-1.15986e-07
3.8486e-06
-1.17121e-07
3.96525e-06
-1.16659e-07
4.08222e-06
-1.16974e-07
4.19838e-06
-1.16163e-07
4.31522e-06
-1.16848e-07
4.42864e-06
-1.13441e-07
4.5405e-06
-1.11865e-07
4.65516e-06
-1.14676e-07
4.77312e-06
-1.17968e-07
4.89312e-06
-1.20002e-07
5.0135e-06
-1.20401e-07
5.13285e-06
-1.19365e-07
5.25122e-06
-1.1838e-07
5.36864e-06
-1.17427e-07
5.48555e-06
-1.16921e-07
5.60247e-06
-1.16918e-07
5.7196e-06
-1.17133e-07
5.83457e-06
-1.14969e-07
5.95112e-06
-1.16555e-07
6.06877e-06
-1.17661e-07
6.18364e-06
-1.1488e-07
6.29518e-06
-1.1154e-07
6.40496e-06
-1.09784e-07
6.51402e-06
-1.09066e-07
6.62321e-06
-1.09191e-07
6.73301e-06
-1.09799e-07
6.84318e-06
-1.10168e-07
6.95342e-06
-1.10248e-07
7.06344e-06
-1.10021e-07
7.17289e-06
-1.0945e-07
7.28156e-06
-1.08664e-07
7.38945e-06
-1.07893e-07
7.49699e-06
-1.07538e-07
7.60455e-06
-1.07564e-07
7.71214e-06
-1.07587e-07
7.81937e-06
-1.07226e-07
7.92552e-06
-1.06145e-07
8.03046e-06
-1.04944e-07
8.13491e-06
-1.04452e-07
8.23969e-06
-1.04777e-07
8.34488e-06
-1.05189e-07
8.44918e-06
-1.04299e-07
8.55247e-06
-1.03286e-07
8.65457e-06
-1.02104e-07
8.75828e-06
-1.03709e-07
8.86002e-06
-1.01738e-07
8.9611e-06
-1.01078e-07
9.06329e-06
-1.02191e-07
9.17147e-06
-1.08179e-07
9.28191e-06
-1.10435e-07
9.39112e-06
-1.0921e-07
9.49889e-06
-1.07772e-07
9.60607e-06
-1.07179e-07
9.71369e-06
-1.07622e-07
-1.17598e-07
4.32515e-05
5.39154e-07
4.78518e-05
-5.9577e-06
5.96731e-05
-1.74776e-05
7.15481e-05
-1.8495e-05
7.68997e-05
-9.98138e-06
7.51465e-05
-8.39474e-07
7.19793e-05
1.13354e-06
6.94397e-05
6.2483e-07
6.74828e-05
8.23252e-08
6.62143e-05
-1.80122e-07
6.53193e-05
-6.766e-07
6.4924e-05
-1.50713e-06
6.52203e-05
-2.41701e-06
6.58635e-05
-3.02324e-06
6.60419e-05
-2.53972e-06
6.5047e-05
-5.4343e-07
6.28299e-05
2.94345e-06
5.95889e-05
6.31106e-06
5.49034e-05
8.56052e-06
4.98758e-05
1.09594e-05
4.6738e-05
1.24246e-05
4.44285e-05
1.15096e-05
4.15566e-05
9.0493e-06
3.86729e-05
7.30332e-06
3.63161e-05
5.39343e-06
3.41981e-05
4.1555e-06
3.22119e-05
3.977e-06
3.01402e-05
4.27524e-06
2.79394e-05
4.64168e-06
2.5719e-05
4.70053e-06
2.36055e-05
4.2194e-06
2.18511e-05
3.65806e-06
2.04362e-05
3.25567e-06
1.92645e-05
2.58704e-06
1.82651e-05
1.68991e-06
1.72614e-05
1.52169e-06
1.60619e-05
2.23902e-06
1.46662e-05
3.30104e-06
1.32382e-05
3.74158e-06
1.18851e-05
3.05271e-06
1.07884e-05
1.76891e-06
9.98121e-06
1.21646e-06
9.15897e-06
1.48877e-06
7.98068e-06
2.32072e-06
6.58644e-06
3.04957e-06
5.18752e-06
3.12283e-06
3.84637e-06
2.50694e-06
2.81778e-06
1.58267e-06
2.11382e-06
1.11683e-06
1.54485e-06
1.02452e-06
9.83612e-07
1.01272e-06
2.92317e-07
1.11812e-06
-5.60086e-07
1.31655e-06
-1.64301e-06
1.94388e-06
-2.7711e-06
2.4948e-06
-3.70751e-06
2.57696e-06
-4.42163e-06
2.28267e-06
-5.17364e-06
1.96913e-06
-6.2558e-06
1.97971e-06
-7.59191e-06
2.28487e-06
-8.93323e-06
2.53721e-06
-1.00813e-05
2.19993e-06
-1.07654e-05
1.03243e-06
-1.09847e-05
-1.69864e-07
-1.10908e-05
-6.05013e-07
-1.12234e-05
-6.17627e-07
-1.14948e-05
-3.57819e-07
-1.19496e-05
-1.83372e-07
-1.24912e-05
-2.91759e-07
-1.28605e-05
-8.93893e-07
-1.26656e-05
-2.07749e-06
-1.18799e-05
-3.49532e-06
-1.05863e-05
-4.61655e-06
-8.85151e-06
-5.20717e-06
-6.72358e-06
-5.30213e-06
-3.95385e-06
-4.86294e-06
-3.86757e-07
-3.78464e-06
4.42483e-06
-1.20195e-06
6.94988e-06
8.72564e-07
6.56617e-06
2.17431e-06
3.50059e-06
5.99237e-06
2.17819e-07
4.81416e-06
-1.25961e-06
3.01354e-06
-3.47676e-06
2.74575e-06
-4.37134e-06
1.33279e-06
-5.12836e-06
1.15096e-06
-5.3179e-06
4.16459e-07
-5.08941e-06
-8.00395e-08
-4.78454e-06
-2.90768e-07
-4.94417e-06
7.51573e-08
-4.90242e-06
-4.16689e-07
-4.95164e-06
-5.67775e-07
-4.92828e-06
-9.2875e-07
-4.86191e-06
-1.35476e-06
-4.7389e-06
-2.03077e-06
-4.49113e-06
-2.5807e-06
-3.88878e-06
-3.37037e-06
-2.73639e-06
-3.98941e-06
-1.0689e-06
-3.95966e-06
1.532e-06
-3.60075e-06
4.50333e-06
-2.9443e-06
7.01653e-06
-2.073e-06
8.52345e-06
-7.70905e-07
9.18289e-06
-7.5094e-08
9.43766e-06
4.79636e-07
9.14712e-06
8.09686e-07
8.69085e-06
7.06954e-07
8.01104e-06
1.01226e-06
7.26202e-06
1.2007e-06
6.72831e-06
9.99238e-07
6.45347e-06
7.21009e-07
6.13165e-06
7.38974e-07
5.76321e-06
6.53876e-07
5.33914e-06
5.71981e-07
4.82543e-06
4.45043e-07
4.3809e-06
2.45564e-07
4.00384e-06
5.02998e-08
3.91525e-06
5.45538e-08
4.11788e-06
1.6551e-07
4.44354e-06
1.58065e-07
4.45625e-06
5.72175e-07
4.08797e-06
9.19783e-07
3.68015e-06
1.09083e-06
3.18826e-06
1.109e-06
2.6535e-06
1.05977e-06
1.98192e-06
1.21145e-06
1.36345e-06
1.14563e-06
8.36454e-07
1.06034e-06
3.21384e-07
1.07621e-06
-1.71227e-07
1.03291e-06
-6.73787e-07
1.01571e-06
-1.19246e-06
1.01422e-06
-1.69169e-06
9.76261e-07
-2.17806e-06
9.70387e-07
-2.66179e-06
9.61169e-07
-3.13279e-06
9.44102e-07
-3.59125e-06
9.20407e-07
-4.04267e-06
8.99225e-07
-4.4911e-06
8.95093e-07
-4.93106e-06
8.80188e-07
-5.36208e-06
8.65092e-07
-5.78253e-06
8.42227e-07
-6.18917e-06
8.14808e-07
-6.58336e-06
7.82457e-07
-6.96677e-06
7.6043e-07
-7.34508e-06
7.49176e-07
-7.71366e-06
7.355e-07
-8.06966e-06
7.16254e-07
-8.40962e-06
6.86852e-07
-8.73798e-06
6.5295e-07
-9.058e-06
6.33295e-07
-9.37217e-06
6.21905e-07
-9.67591e-06
6.06007e-07
-9.96574e-06
5.82782e-07
-1.02404e-05
5.54851e-07
-1.05073e-05
5.35416e-07
-1.07692e-05
5.18646e-07
-1.10218e-05
5.00135e-07
-1.12633e-05
4.79326e-07
-1.14924e-05
4.55931e-07
-1.17102e-05
4.36482e-07
-1.19195e-05
4.20291e-07
-1.21183e-05
3.98035e-07
-1.23045e-05
3.70419e-07
-1.24806e-05
3.49987e-07
-1.26485e-05
3.36755e-07
-1.28075e-05
3.20199e-07
-1.29557e-05
2.93439e-07
-1.30888e-05
2.64042e-07
-1.32109e-05
2.443e-07
-1.33259e-05
2.31558e-07
-1.34319e-05
2.14527e-07
-1.35284e-05
1.92776e-07
-1.36128e-05
1.6618e-07
-1.36852e-05
1.4154e-07
-1.37461e-05
1.21226e-07
-1.37983e-05
1.05758e-07
-1.38417e-05
8.9173e-08
-1.38775e-05
7.33449e-08
-1.39038e-05
5.64149e-08
-1.3923e-05
3.90547e-08
-1.39334e-05
2.00688e-08
-1.39333e-05
-4.13246e-09
-1.39203e-05
-2.7235e-08
-1.38987e-05
-4.30006e-08
-1.38691e-05
-5.59464e-08
-1.3834e-05
-6.56403e-08
-1.37951e-05
-7.61415e-08
-1.37506e-05
-9.29818e-08
-1.36966e-05
-1.11004e-07
-1.3633e-05
-1.29274e-07
-1.35588e-05
-1.45723e-07
-1.34776e-05
-1.56701e-07
-1.33918e-05
-1.66827e-07
-1.33022e-05
-1.76586e-07
-1.32094e-05
-1.8827e-07
-1.31089e-05
-2.04137e-07
-1.29986e-05
-2.22122e-07
-1.2881e-05
-2.35416e-07
-1.27593e-05
-2.41191e-07
-1.26354e-05
-2.44625e-07
-1.25069e-05
-2.52902e-07
-1.23717e-05
-2.671e-07
-1.223e-05
-2.83665e-07
-1.20836e-05
-2.95188e-07
-1.19337e-05
-3.01493e-07
-1.17798e-05
-3.06976e-07
-1.16206e-05
-3.15018e-07
-1.14552e-05
-3.26663e-07
-1.12851e-05
-3.40428e-07
-1.11125e-05
-3.48291e-07
-1.09389e-05
-3.47844e-07
-1.0764e-05
-3.46242e-07
-1.05832e-05
-3.56001e-07
-1.03955e-05
-3.77227e-07
-1.02028e-05
-3.89591e-07
-1.0008e-05
-3.93941e-07
-9.81181e-06
-3.94153e-07
-9.61707e-06
-3.85251e-07
-9.42426e-06
-3.80303e-07
-9.23082e-06
-3.8533e-07
-9.03477e-06
-3.96796e-07
-8.83507e-06
-4.05081e-07
-8.63714e-06
-4.02208e-07
-8.44155e-06
-3.93552e-07
-8.24996e-06
-3.77618e-07
-8.06394e-06
-3.66499e-07
-7.88334e-06
-3.60323e-07
-7.70612e-06
-3.57506e-07
-7.53041e-06
-3.56879e-07
-7.35859e-06
-3.4942e-07
-7.19246e-06
-3.33654e-07
-7.03499e-06
-3.10248e-07
-6.88567e-06
-2.95639e-07
-6.74034e-06
-2.90962e-07
-6.59634e-06
-2.86317e-07
-6.45633e-06
-2.79844e-07
-6.32156e-06
-2.70265e-07
-6.194e-06
-2.55967e-07
-6.0751e-06
-2.40535e-07
-5.96442e-06
-2.26877e-07
-5.85799e-06
-2.15571e-07
-5.75354e-06
-2.06399e-07
-5.64963e-06
-2.01439e-07
-5.54815e-06
-1.99359e-07
-5.45093e-06
-1.97465e-07
-5.35711e-06
-1.93389e-07
-5.26648e-06
-1.86112e-07
-5.17898e-06
-1.72768e-07
-5.09301e-06
-1.66898e-07
-5.00572e-06
-1.74615e-07
-4.91595e-06
-1.82234e-07
-4.82688e-06
-1.81532e-07
-4.73959e-06
-1.79103e-07
-4.6516e-06
-1.77069e-07
-4.56061e-06
-1.78926e-07
-4.46538e-06
-1.873e-07
-4.36731e-06
-1.94645e-07
-4.26771e-06
-1.99873e-07
-4.16757e-06
-2.04346e-07
-4.0662e-06
-2.0737e-07
-3.95876e-06
-2.15363e-07
-3.84359e-06
-2.27866e-07
-3.72325e-06
-2.39301e-07
-3.59857e-06
-2.51188e-07
-3.46976e-06
-2.60524e-07
-3.33828e-06
-2.64502e-07
-3.20299e-06
-2.68694e-07
-3.062e-06
-2.79328e-07
-2.91365e-06
-2.96412e-07
-2.75815e-06
-3.12613e-07
-2.59725e-06
-3.2373e-07
-2.43177e-06
-3.33663e-07
-2.26127e-06
-3.42899e-07
-2.08474e-06
-3.50822e-07
-1.90334e-06
-3.59954e-07
-1.71735e-06
-3.71072e-07
-1.5268e-06
-3.822e-07
-1.33092e-06
-3.93485e-07
-1.12937e-06
-4.04323e-07
-9.22628e-07
-4.14318e-07
-7.11613e-07
-4.23006e-07
-4.98085e-07
-4.27501e-07
-2.82269e-07
-4.3014e-07
-6.27136e-08
-4.37891e-07
1.60965e-07
-4.47245e-07
3.8738e-07
-4.52979e-07
6.15596e-07
-4.56815e-07
8.45482e-07
-4.6037e-07
1.07763e-06
-4.64048e-07
1.31139e-06
-4.65982e-07
1.54636e-06
-4.6811e-07
1.78241e-06
-4.70871e-07
2.01904e-06
-4.72908e-07
2.25595e-06
-4.74118e-07
2.49343e-06
-4.74996e-07
2.73143e-06
-4.74833e-07
2.96939e-06
-4.73704e-07
3.20607e-06
-4.71856e-07
3.44087e-06
-4.69313e-07
3.67471e-06
-4.67881e-07
3.90798e-06
-4.66196e-07
4.1399e-06
-4.62385e-07
4.36957e-06
-4.57566e-07
4.59599e-06
-4.52302e-07
4.8198e-06
-4.47343e-07
5.04153e-06
-4.42439e-07
5.26013e-06
-4.35813e-07
5.4747e-06
-4.28052e-07
5.68517e-06
-4.20345e-07
5.89188e-06
-4.12938e-07
6.09454e-06
-4.0457e-07
6.29242e-06
-3.94516e-07
6.48487e-06
-3.83703e-07
6.67195e-06
-3.73432e-07
6.85389e-06
-3.63331e-07
7.03041e-06
-3.52281e-07
7.20101e-06
-3.40271e-07
7.36529e-06
-3.27699e-07
7.52295e-06
-3.1476e-07
7.67397e-06
-3.01724e-07
7.81834e-06
-2.88356e-07
7.95586e-06
-2.74423e-07
8.08637e-06
-2.60216e-07
8.20958e-06
-2.45904e-07
8.32525e-06
-2.31184e-07
8.43325e-06
-2.15937e-07
8.53365e-06
-2.00464e-07
8.62651e-06
-1.85294e-07
8.71171e-06
-1.70172e-07
8.78902e-06
-1.54801e-07
8.85835e-06
-1.38945e-07
8.91955e-06
-1.22468e-07
8.97284e-06
-1.06236e-07
9.01827e-06
-9.07185e-08
9.05602e-06
-7.55751e-08
9.08597e-06
-6.02681e-08
9.10824e-06
-4.49083e-08
9.12299e-06
-2.96028e-08
9.13013e-06
-1.42494e-08
9.12966e-06
8.29681e-10
9.12177e-06
1.54154e-08
9.10673e-06
2.95736e-08
9.08446e-06
4.38962e-08
9.05513e-06
5.81732e-08
9.01917e-06
7.17643e-08
8.97668e-06
8.48011e-08
8.9277e-06
9.75272e-08
8.87232e-06
1.1008e-07
8.81069e-06
1.22649e-07
8.74306e-06
1.35064e-07
8.6696e-06
1.46742e-07
8.5905e-06
1.5761e-07
8.50593e-06
1.68465e-07
8.41606e-06
1.79361e-07
8.32098e-06
1.89727e-07
8.22069e-06
1.99829e-07
8.11553e-06
2.0947e-07
8.00588e-06
2.18563e-07
7.89188e-06
2.27342e-07
7.77355e-06
2.35956e-07
7.651e-06
2.44342e-07
7.52447e-06
2.52283e-07
7.3941e-06
2.60053e-07
7.26008e-06
2.67666e-07
7.1225e-06
2.74969e-07
6.98145e-06
2.81828e-07
6.83707e-06
2.88245e-07
6.6895e-06
2.94453e-07
6.5389e-06
3.00635e-07
6.38542e-06
3.06684e-07
6.22916e-06
3.12252e-07
6.07044e-06
3.17071e-07
5.90945e-06
3.21525e-07
5.74616e-06
3.26213e-07
5.58065e-06
3.30737e-07
5.41287e-06
3.35104e-07
5.2432e-06
3.38949e-07
5.07196e-06
3.42636e-07
4.89919e-06
3.46135e-07
4.72483e-06
3.49135e-07
4.5491e-06
3.51326e-07
4.37229e-06
3.53283e-07
4.19446e-06
3.55325e-07
4.01569e-06
3.57216e-07
3.83624e-06
3.58687e-07
3.65627e-06
3.59972e-07
3.47621e-06
3.60227e-07
3.29589e-06
3.6028e-07
3.11554e-06
3.60269e-07
2.93561e-06
3.60074e-07
2.75641e-06
3.59089e-07
2.57769e-06
3.57638e-07
2.39954e-06
3.55998e-07
2.22233e-06
3.54114e-07
2.04672e-06
3.51118e-07
1.87268e-06
3.48308e-07
1.70054e-06
3.4516e-07
1.53013e-06
3.41804e-07
1.36139e-06
3.37849e-07
1.19517e-06
3.32543e-07
1.03176e-06
3.26635e-07
8.71043e-07
3.21262e-07
7.13737e-07
3.14936e-07
5.59762e-07
3.08717e-07
4.09143e-07
3.02001e-07
2.61961e-07
2.94508e-07
1.18347e-07
2.86376e-07
-2.11621e-08
2.78073e-07
-1.56212e-07
2.69426e-07
-2.86769e-07
2.61252e-07
-4.12803e-07
2.52503e-07
-5.34422e-07
2.44246e-07
-6.52371e-07
2.35361e-07
-7.67336e-07
2.28405e-07
-8.78859e-07
2.20573e-07
-9.85118e-07
2.11348e-07
-1.08588e-06
2.02926e-07
-1.17954e-06
1.91946e-07
-1.27165e-06
1.85712e-07
-1.35979e-06
1.76948e-07
-1.4474e-06
1.70202e-07
-1.54294e-06
1.75417e-07
-1.62265e-06
1.54072e-07
-1.69273e-06
1.40476e-07
-1.75293e-06
1.41313e-07
-1.79762e-06
1.08317e-07
-1.81366e-06
7.36039e-08
-1.82124e-06
6.82926e-08
-1.85146e-06
6.75381e-08
-1.90283e-06
5.18574e-08
-1.95986e-06
5.54092e-08
-2.00396e-06
6.67627e-08
-2.03649e-06
5.81015e-08
-2.06239e-06
6.16678e-08
-2.0769e-06
4.58313e-08
-2.08746e-06
3.5595e-08
-2.10301e-06
3.36696e-08
-2.14894e-06
6.25768e-08
-2.20491e-06
6.80656e-08
-2.22112e-06
2.18543e-08
-2.20942e-06
2.57434e-08
-2.11573e-06
-5.24719e-08
-2.00233e-06
-1.02038e-07
-1.76284e-06
-2.24759e-07
-1.46276e-06
-3.48739e-07
-1.22061e-06
-3.23855e-07
-1.08318e-06
-3.64664e-07
-1.04434e-06
-3.63035e-07
-9.93709e-07
-3.03582e-07
-9.25517e-07
-2.79103e-07
-8.60375e-07
-2.02619e-07
-7.8485e-07
-1.97195e-07
-7.14384e-07
-1.64e-07
-6.49634e-07
-1.5239e-07
-5.88732e-07
-1.32104e-07
-5.2768e-07
-1.25611e-07
-4.43749e-07
-1.54513e-07
-4.08793e-07
-8.75258e-08
-3.39378e-07
-1.28404e-07
-2.3261e-07
-1.8491e-07
-2.62603e-07
3.67896e-09
-1.77703e-07
-1.45024e-07
-2.04126e-07
-8.59135e-08
8.64754e-08
-2.308e-07
-7.23157e-09
-2.22497e-09
-7.38624e-08
4.42423e-08
1.60404e-07
-4.15987e-07
4.39201e-07
-1.51238e-07
7.67614e-07
-1.98592e-07
8.72382e-07
-4.19773e-07
9.94221e-07
-4.52646e-07
1.12625e-06
-4.10948e-07
1.25798e-06
-3.51009e-07
1.38303e-06
-3.06379e-07
1.50568e-06
-2.87735e-07
1.62881e-06
-2.7512e-07
1.75047e-06
-2.61948e-07
1.87209e-06
-2.52276e-07
1.99434e-06
-2.5094e-07
2.1164e-06
-2.50078e-07
2.23653e-06
-2.43352e-07
2.35581e-06
-2.41107e-07
2.47493e-06
-2.39968e-07
2.59384e-06
-2.36435e-07
2.71304e-06
-2.38975e-07
2.83232e-06
-2.39204e-07
2.95173e-06
-2.37266e-07
3.07111e-06
-2.34571e-07
3.19083e-06
-2.38723e-07
3.31055e-06
-2.4064e-07
3.42987e-06
-2.37531e-07
3.54859e-06
-2.34032e-07
3.6671e-06
-2.33015e-07
3.78513e-06
-2.3402e-07
3.90299e-06
-2.34989e-07
4.02095e-06
-2.34625e-07
4.13949e-06
-2.35523e-07
4.25705e-06
-2.33729e-07
4.37299e-06
-2.32791e-07
4.48902e-06
-2.29477e-07
4.60555e-06
-2.284e-07
4.72226e-06
-2.31387e-07
4.83929e-06
-2.34992e-07
4.95633e-06
-2.37034e-07
5.07311e-06
-2.37176e-07
5.19047e-06
-2.36725e-07
5.30753e-06
-2.35441e-07
5.42438e-06
-2.3428e-07
5.54124e-06
-2.33792e-07
5.65783e-06
-2.33511e-07
5.77352e-06
-2.32828e-07
5.8886e-06
-2.30063e-07
6.00313e-06
-2.31083e-07
6.11681e-06
-2.31348e-07
6.2298e-06
-2.27885e-07
6.34229e-06
-2.24056e-07
6.45433e-06
-2.21836e-07
6.566e-06
-2.20755e-07
6.67717e-06
-2.20363e-07
6.78769e-06
-2.20327e-07
6.89783e-06
-2.20318e-07
7.00777e-06
-2.20186e-07
7.11748e-06
-2.19735e-07
7.22681e-06
-2.18778e-07
7.33555e-06
-2.17406e-07
7.44374e-06
-2.16084e-07
7.55145e-06
-2.1525e-07
7.65888e-06
-2.14984e-07
7.76606e-06
-2.14772e-07
7.87243e-06
-2.13592e-07
7.97787e-06
-2.11578e-07
8.08289e-06
-2.09961e-07
8.18804e-06
-2.09596e-07
8.29316e-06
-2.09899e-07
8.39772e-06
-2.0974e-07
8.50128e-06
-2.07856e-07
8.60485e-06
-2.06854e-07
8.70895e-06
-2.06204e-07
8.813e-06
-2.07757e-07
8.91632e-06
-2.05056e-07
9.01884e-06
-2.03586e-07
9.12232e-06
-2.05651e-07
9.22617e-06
-2.11997e-07
9.32976e-06
-2.14008e-07
9.43251e-06
-2.11956e-07
9.53472e-06
-2.0999e-07
9.6364e-06
-2.08873e-07
9.73769e-06
-2.08917e-07
-2.11223e-07
4.37601e-05
2.72355e-07
5.54517e-05
-1.76494e-05
6.9735e-05
-3.17611e-05
8.18281e-05
-3.05882e-05
8.79556e-05
-1.6109e-05
8.47368e-05
2.37921e-06
7.74804e-05
8.38984e-06
7.05583e-05
7.54692e-06
6.51523e-05
5.48832e-06
6.08578e-05
4.11444e-06
5.68895e-05
3.29177e-06
5.29996e-05
2.38269e-06
4.96028e-05
9.79647e-07
4.68072e-05
-2.27736e-07
4.39684e-05
2.98564e-07
4.09441e-05
2.48061e-06
3.84146e-05
5.4729e-06
3.67887e-05
7.93702e-06
3.54655e-05
9.88371e-06
3.50237e-05
1.1401e-05
3.56934e-05
1.17531e-05
3.62449e-05
1.09489e-05
3.55181e-05
9.77614e-06
3.42479e-05
8.5772e-06
3.27036e-05
6.94207e-06
3.11139e-05
5.74561e-06
2.9737e-05
5.3516e-06
2.81878e-05
5.80386e-06
2.64231e-05
6.40639e-06
2.45497e-05
6.57395e-06
2.2629e-05
6.14011e-06
2.11571e-05
5.13978e-06
2.01815e-05
4.23723e-06
1.92671e-05
3.50245e-06
1.80234e-05
2.93372e-06
1.66321e-05
2.91257e-06
1.55079e-05
3.35845e-06
1.46471e-05
4.15769e-06
1.38171e-05
4.57155e-06
1.27831e-05
4.09297e-06
1.15004e-05
3.05486e-06
1.02747e-05
2.44212e-06
9.1629e-06
2.59874e-06
8.03744e-06
3.44393e-06
6.85414e-06
4.23288e-06
5.59389e-06
4.38307e-06
4.18277e-06
3.91897e-06
2.82571e-06
2.94039e-06
1.71483e-06
2.22774e-06
7.94306e-07
1.94499e-06
-1.07688e-07
1.91466e-06
-1.05558e-06
2.06603e-06
-2.08294e-06
2.34453e-06
-2.94609e-06
2.80701e-06
-3.53493e-06
3.08366e-06
-3.87397e-06
2.916e-06
-4.16607e-06
2.57445e-06
-4.71255e-06
2.51783e-06
-5.76417e-06
3.03033e-06
-7.114e-06
3.63514e-06
-8.38959e-06
3.81274e-06
-9.4985e-06
3.30328e-06
-1.05101e-05
2.04225e-06
-1.13115e-05
6.31388e-07
-1.18064e-05
-1.09516e-07
-1.21941e-05
-2.27132e-07
-1.25739e-05
2.43332e-08
-1.30454e-05
2.88236e-07
-1.36677e-05
3.30406e-07
-1.4387e-05
-1.80863e-07
-1.50917e-05
-1.37335e-06
-1.58118e-05
-2.77521e-06
-1.63758e-05
-4.05259e-06
-1.66631e-05
-4.91982e-06
-1.66375e-05
-5.32769e-06
-1.61556e-05
-5.3434e-06