/*--------------------------------*- C++ -*----------------------------------*\
| =========                 |                                                 |
| \\      /  F ield         | OpenFOAM: The Open Source CFD Toolbox           |
|  \\    /   O peration     | Version:  v2006                                 |
|   \\  /    A nd           | Website:  www.openfoam.com                      |
|    \\/     M anipulation  |                                                 |
\*---------------------------------------------------------------------------*/
FoamFile
{
    version     2.0;
    format      ascii;
    class       volScalarField;
    location    "6.6";
    object      nut;
}
// * * * * * * * * * * * * * * * * * * * * * * * * * * * * * * * * * * * * * //

dimensions      [0 2 -1 0 0 0 0];


internalField   nonuniform List<scalar> 
33000
(
8.73602e-10
1.34002e-09
1.39343e-09
1.29814e-09
1.25598e-09
1.31034e-09
1.39538e-09
1.49471e-09
1.57928e-09
1.69395e-09
1.86045e-09
2.04005e-09
2.26797e-09
2.50646e-09
2.65269e-09
2.71787e-09
2.80318e-09
3.09411e-09
3.52435e-09
3.92948e-09
5.53022e-09
1.0151e-08
1.73725e-08
2.23214e-08
2.63451e-08
2.86592e-08
2.96228e-08
3.1386e-08
3.40123e-08
3.75674e-08
4.13381e-08
4.39129e-08
4.73233e-08
5.25995e-08
5.60037e-08
5.50215e-08
5.37907e-08
5.60645e-08
6.43678e-08
8.28e-08
9.73213e-08
9.3248e-08
9.21145e-08
9.45337e-08
1.02189e-07
1.27806e-07
1.94859e-07
2.81006e-07
2.99559e-07
3.44286e-07
4.12987e-07
4.49986e-07
4.52385e-07
3.43937e-07
2.25399e-07
1.76299e-07
1.56567e-07
1.46274e-07
1.40398e-07
1.29142e-07
1.03147e-07
8.12411e-08
7.11197e-08
6.60725e-08
6.40303e-08
6.46495e-08
6.28013e-08
5.73862e-08
5.21292e-08
4.73648e-08
4.22833e-08
3.78548e-08
3.57785e-08
3.69232e-08
3.82329e-08
4.25167e-08
3.78749e-08
3.35806e-08
4.93843e-08
9.07871e-08
6.31005e-08
1.37914e-07
1.49578e-07
1.70911e-07
1.81892e-07
1.45775e-07
1.52665e-07
1.43752e-07
1.59414e-07
1.44723e-07
1.31673e-07
1.17906e-07
1.02923e-07
8.8173e-08
6.95943e-08
5.9676e-08
5.00829e-08
4.37354e-08
4.21219e-08
4.73806e-08
5.7089e-08
6.18998e-08
6.36291e-08
5.72128e-08
4.97704e-08
5.07672e-08
5.31019e-08
5.68384e-08
6.19169e-08
6.91888e-08
7.02598e-08
7.08936e-08
7.37929e-08
7.78103e-08
7.98072e-08
7.82182e-08
6.88304e-08
6.38612e-08
6.97927e-08
7.81838e-08
8.90036e-08
9.54645e-08
9.39795e-08
1.06413e-07
1.22643e-07
1.47802e-07
1.86255e-07
2.15972e-07
2.21827e-07
2.23196e-07
2.24486e-07
2.25625e-07
2.26576e-07
1.94842e-07
1.68674e-07
1.47736e-07
1.31773e-07
1.18776e-07
1.07859e-07
9.84139e-08
9.06567e-08
8.41369e-08
7.86713e-08
7.40526e-08
7.00726e-08
6.64545e-08
6.31797e-08
6.0216e-08
5.75161e-08
5.52355e-08
5.32433e-08
5.13303e-08
4.95361e-08
4.78801e-08
4.63869e-08
4.50351e-08
4.37795e-08
4.26205e-08
4.15318e-08
4.05284e-08
3.961e-08
3.87376e-08
3.79075e-08
3.71666e-08
3.64954e-08
3.58446e-08
3.52046e-08
3.46103e-08
3.40827e-08
3.35936e-08
3.31174e-08
3.26609e-08
3.2227e-08
3.18346e-08
3.14821e-08
3.11599e-08
3.08652e-08
3.05932e-08
3.03479e-08
3.01304e-08
2.99421e-08
2.97765e-08
2.96348e-08
2.95281e-08
2.94507e-08
2.94015e-08
2.93796e-08
2.9368e-08
2.93698e-08
2.93923e-08
2.94335e-08
2.94991e-08
2.95792e-08
2.96657e-08
2.97565e-08
2.98422e-08
2.9928e-08
3.00219e-08
3.01383e-08
3.02812e-08
3.04294e-08
3.05677e-08
3.06909e-08
3.08166e-08
3.09668e-08
3.1138e-08
3.13248e-08
3.15177e-08
3.17017e-08
3.19021e-08
3.21559e-08
3.24617e-08
3.27748e-08
3.30467e-08
3.33553e-08
3.37664e-08
3.4238e-08
3.47797e-08
3.53552e-08
3.58936e-08
3.64392e-08
3.70508e-08
3.7766e-08
3.85669e-08
3.94368e-08
4.03048e-08
4.10982e-08
4.19232e-08
4.27876e-08
4.37157e-08
4.4743e-08
4.58358e-08
4.68538e-08
4.77441e-08
4.86887e-08
4.96955e-08
5.0702e-08
5.17507e-08
5.27923e-08
5.37657e-08
5.4731e-08
5.57094e-08
5.66228e-08
5.74443e-08
5.82374e-08
5.91126e-08
6.00658e-08
6.10822e-08
6.20068e-08
6.26479e-08
6.33421e-08
6.42968e-08
6.53045e-08
6.63004e-08
6.73238e-08
6.82536e-08
6.92162e-08
7.0357e-08
7.15925e-08
7.29371e-08
7.44171e-08
7.59211e-08
7.75163e-08
7.9307e-08
8.13906e-08
8.38739e-08
8.66575e-08
8.95108e-08
9.24257e-08
9.58252e-08
1.00052e-07
1.05004e-07
1.10673e-07
1.17394e-07
1.2512e-07
1.3383e-07
1.42053e-07
1.41193e-07
1.4034e-07
1.39494e-07
1.38657e-07
1.3784e-07
1.37048e-07
1.36247e-07
1.3542e-07
1.34596e-07
1.33781e-07
1.32955e-07
1.32106e-07
1.31229e-07
1.30309e-07
1.29333e-07
1.28309e-07
1.27245e-07
1.15445e-07
1.03689e-07
9.38585e-08
8.55561e-08
7.8399e-08
7.21634e-08
6.66876e-08
6.18269e-08
5.75176e-08
5.36642e-08
5.01582e-08
4.69395e-08
4.39861e-08
4.12943e-08
3.88498e-08
3.66263e-08
3.45991e-08
3.27512e-08
3.10724e-08
2.95509e-08
2.81662e-08
2.69034e-08
2.57565e-08
2.47169e-08
2.37735e-08
2.29173e-08
2.21414e-08
2.14391e-08
2.08057e-08
2.02366e-08
1.97258e-08
1.9269e-08
1.88626e-08
1.85024e-08
1.81833e-08
1.79003e-08
1.76499e-08
1.74291e-08
1.72379e-08
1.70754e-08
1.69368e-08
1.68177e-08
1.67148e-08
1.66251e-08
1.65456e-08
1.6475e-08
1.64122e-08
1.63566e-08
1.63089e-08
1.62695e-08
1.62393e-08
1.62177e-08
1.62036e-08
1.61968e-08
1.61979e-08
1.62073e-08
1.62261e-08
1.62533e-08
1.62864e-08
1.63259e-08
1.63747e-08
1.64319e-08
1.64962e-08
1.65693e-08
1.66515e-08
1.67428e-08
1.68432e-08
1.69535e-08
1.70737e-08
1.72047e-08
1.73476e-08
1.75037e-08
1.7673e-08
1.78559e-08
1.80529e-08
1.82659e-08
1.84979e-08
1.87497e-08
1.90202e-08
1.93089e-08
1.96196e-08
1.99558e-08
2.03173e-08
2.07062e-08
2.11252e-08
2.15819e-08
2.20766e-08
2.26088e-08
2.31815e-08
2.38058e-08
2.44968e-08
2.52604e-08
2.61094e-08
2.70548e-08
2.81018e-08
2.92632e-08
3.05697e-08
3.20505e-08
3.37257e-08
3.56104e-08
3.77731e-08
4.02573e-08
4.31259e-08
4.42682e-08
4.38549e-08
4.34606e-08
4.30844e-08
4.2727e-08
4.23905e-08
4.20733e-08
4.1777e-08
4.14987e-08
4.12402e-08
4.09956e-08
4.0772e-08
4.05561e-08
4.03496e-08
4.01301e-08
3.99105e-08
3.96707e-08
3.94333e-08
3.91859e-08
3.89269e-08
3.86702e-08
3.83854e-08
3.80736e-08
3.78015e-08
3.7497e-08
3.72024e-08
3.69485e-08
3.6459e-08
3.59934e-08
3.58495e-08
3.52711e-08
3.51612e-08
3.49312e-08
3.58317e-08
3.61717e-08
3.66853e-08
3.67819e-08
3.62412e-08
3.57441e-08
3.5709e-08
3.51614e-08
3.49739e-08
3.31068e-08
3.2562e-08
3.23693e-08
3.29431e-08
3.55812e-08
3.56277e-08
3.51653e-08
3.36149e-08
3.23202e-08
3.49669e-08
3.53074e-08
3.58788e-08
3.62543e-08
3.65335e-08
3.67267e-08
3.68682e-08
3.69982e-08
3.70607e-08
3.69884e-08
3.69422e-08
3.68802e-08
3.67301e-08
3.691e-08
3.66996e-08
3.60485e-08
3.58218e-08
3.49928e-08
3.48841e-08
3.46018e-08
3.64729e-08
3.7724e-08
4.20068e-08
4.63418e-08
5.07101e-08
5.45714e-08
5.78027e-08
6.04012e-08
6.25045e-08
6.42063e-08
6.557e-08
6.66376e-08
6.63664e-08
6.3406e-08
6.07453e-08
5.81385e-08
5.58327e-08
5.36483e-08
5.14834e-08
4.95028e-08
4.77876e-08
4.61233e-08
4.4416e-08
4.28597e-08
4.14875e-08
4.02161e-08
3.89802e-08
3.77704e-08
3.66338e-08
3.55586e-08
3.45507e-08
3.35684e-08
3.26474e-08
3.18193e-08
3.10033e-08
3.01726e-08
2.93611e-08
2.85832e-08
2.78472e-08
2.7151e-08
2.64856e-08
2.58477e-08
2.52361e-08
2.46379e-08
2.40819e-08
2.35531e-08
2.30163e-08
2.25088e-08
2.2046e-08
2.16068e-08
2.11795e-08
2.07637e-08
2.03573e-08
1.99611e-08
1.9577e-08
1.92052e-08
1.88465e-08
1.85008e-08
1.81683e-08
1.78471e-08
1.7534e-08
1.7229e-08
1.69326e-08
1.66466e-08
1.63733e-08
1.61108e-08
1.58542e-08
1.56008e-08
1.53549e-08
1.51186e-08
1.48947e-08
1.46705e-08
1.44482e-08
1.42456e-08
1.40367e-08
1.38454e-08
1.36065e-08
1.3451e-08
1.31651e-08
1.31566e-08
1.27676e-08
1.1668e-08
5.44822e-09
2.31735e-09
1.92311e-09
2.41601e-09
4.2204e-09
7.23526e-09
9.74997e-09
1.26672e-08
1.95922e-08
2.87779e-08
3.29317e-08
4.30651e-08
6.30144e-08
8.96438e-08
1.11073e-07
1.23798e-07
1.3466e-07
1.43843e-07
1.52293e-07
1.37197e-07
1.45086e-07
1.64835e-07
1.73394e-07
1.71782e-07
1.54812e-07
1.34e-07
1.21138e-07
1.11049e-07
1.06471e-07
1.00643e-07
9.22591e-08
8.99505e-08
9.08425e-08
8.17082e-08
7.30361e-08
7.24638e-08
6.95399e-08
7.5007e-08
8.39467e-08
7.12432e-08
6.07249e-08
7.10804e-08
6.70242e-08
5.72668e-08
6.00995e-08
6.01185e-08
5.05975e-08
4.82359e-08
6.09585e-08
7.26614e-08
6.73839e-08
5.51756e-08
4.95911e-08
4.82149e-08
5.42862e-08
7.03691e-08
8.48465e-08
7.17947e-08
4.89433e-08
4.00001e-08
4.10846e-08
4.404e-08
4.33595e-08
5.19421e-08
6.90605e-08
6.8835e-08
6.98307e-08
7.16708e-08
7.40318e-08
7.2234e-08
6.68523e-08
5.83788e-08
5.47098e-08
5.40783e-08
5.89086e-08
6.7316e-08
8.34902e-08
9.30816e-08
1.15748e-07
1.22557e-07
1.40096e-07
1.46365e-07
1.32924e-07
1.24414e-07
1.10358e-07
9.8116e-08
8.95425e-08
8.23478e-08
7.54042e-08
7.31535e-08
5.75457e-08
8.44704e-08
5.66553e-08
4.3332e-08
4.62629e-08
5.06336e-08
5.43541e-08
5.44809e-08
5.4389e-08
4.75087e-08
4.35113e-08
4.61224e-08
5.08603e-08
4.16613e-08
3.35375e-08
2.27279e-08
2.33068e-08
2.34223e-08
2.15464e-08
2.84281e-08
5.20101e-08
4.81583e-08
3.62339e-08
3.25667e-08
2.8735e-08
2.97248e-08
3.15301e-08
4.30876e-08
3.72122e-08
3.45369e-08
7.48765e-08
4.46978e-08
4.18662e-08
3.24727e-08
2.87111e-08
2.38186e-08
2.52276e-08
2.9073e-08
3.03565e-08
3.10814e-08
3.00351e-08
2.89337e-08
2.9748e-08
3.05931e-08
3.07956e-08
3.16453e-08
3.24086e-08
3.26985e-08
3.28512e-08
3.33634e-08
3.39977e-08
3.46302e-08
3.55702e-08
3.64287e-08
3.70442e-08
3.73007e-08
3.80942e-08
3.9445e-08
4.11683e-08
4.22844e-08
4.29179e-08
4.35412e-08
4.48031e-08
4.6932e-08
4.9269e-08
5.06248e-08
5.1508e-08
5.2982e-08
5.51843e-08
5.78513e-08
6.03686e-08
6.29805e-08
6.62927e-08
7.0136e-08
7.3753e-08
7.6904e-08
8.11388e-08
8.7129e-08
9.54748e-08
1.03329e-07
1.09506e-07
1.18577e-07
1.30368e-07
1.40695e-07
1.41071e-07
1.41507e-07
1.41962e-07
1.42442e-07
1.43003e-07
1.43665e-07
1.44431e-07
1.45305e-07
1.46297e-07
1.47377e-07
1.48432e-07
1.49402e-07
1.50343e-07
1.51376e-07
1.52583e-07
1.53915e-07
1.55232e-07
1.56441e-07
1.55534e-07
1.45559e-07
1.38467e-07
1.30951e-07
1.20917e-07
1.10435e-07
1.03655e-07
1.00151e-07
9.72895e-08
9.32387e-08
8.76677e-08
8.31112e-08
8.04427e-08
7.83658e-08
7.59659e-08
7.28926e-08
6.96521e-08
6.73319e-08
6.61543e-08
6.58409e-08
6.47074e-08
6.20552e-08
5.9262e-08
5.75774e-08
5.67578e-08
5.62607e-08
5.64506e-08
5.65989e-08
5.59804e-08
5.46551e-08
5.35972e-08
5.38448e-08
5.43868e-08
5.52567e-08
5.65722e-08
5.79386e-08
5.85136e-08
5.8902e-08
6.00433e-08
6.19445e-08
6.5148e-08
6.84351e-08
7.00141e-08
7.04117e-08
7.18982e-08
7.47083e-08
7.87893e-08
8.44536e-08
9.06056e-08
9.4342e-08
9.58261e-08
9.62502e-08
9.81265e-08
1.0198e-07
1.06081e-07
1.09935e-07
1.13985e-07
1.15512e-07
1.12921e-07
1.10103e-07
1.11145e-07
1.1343e-07
1.12592e-07
1.08212e-07
1.03088e-07
1.00071e-07
9.82969e-08
9.77758e-08
9.64457e-08
9.07783e-08
8.43743e-08
8.0581e-08
7.77446e-08
7.54654e-08
7.40484e-08
7.17918e-08
6.85338e-08
6.49071e-08
6.19527e-08
5.99216e-08
5.82964e-08
5.66127e-08
5.46544e-08
5.30685e-08
5.16885e-08
5.03875e-08
4.89931e-08
4.75707e-08
4.63452e-08
4.5436e-08
4.49312e-08
4.44041e-08
4.35555e-08
4.27128e-08
4.21723e-08
4.18277e-08
4.15151e-08
4.11205e-08
4.0813e-08
4.0562e-08
4.03227e-08
4.0184e-08
4.01036e-08
3.99888e-08
3.98665e-08
3.98335e-08
3.99847e-08
4.02312e-08
4.03229e-08
4.03649e-08
4.05204e-08
4.08407e-08
4.13164e-08
4.16868e-08
4.19656e-08
4.24342e-08
4.30981e-08
4.37894e-08
4.44516e-08
4.52061e-08
4.6161e-08
4.73208e-08
4.85234e-08
4.97332e-08
5.11069e-08
5.27165e-08
5.4588e-08
5.67176e-08
5.9044e-08
6.16069e-08
6.44937e-08
6.77898e-08
7.16156e-08
7.60787e-08
8.12378e-08
8.71443e-08
9.39513e-08
1.02024e-07
1.11883e-07
1.23978e-07
1.39153e-07
1.58551e-07
1.83467e-07
2.1629e-07
2.35138e-07
2.34914e-07
2.34564e-07
2.34394e-07
2.34529e-07
2.34761e-07
2.34944e-07
2.34871e-07
2.34715e-07
2.34962e-07
2.10418e-07
1.83257e-07
1.62416e-07
1.4614e-07
1.33224e-07
1.2264e-07
1.13771e-07
1.06295e-07
9.99388e-08
9.43411e-08
8.93029e-08
8.50426e-08
8.14415e-08
7.82068e-08
7.52259e-08
7.25063e-08
7.01116e-08
6.79459e-08
6.59735e-08
6.41611e-08
6.24613e-08
6.09153e-08
5.94963e-08
5.82035e-08
5.70049e-08
5.58868e-08
5.49093e-08
5.40252e-08
5.31755e-08
5.2356e-08
5.15535e-08
5.08798e-08
5.03166e-08
4.97768e-08
4.92178e-08
4.87313e-08
4.8335e-08
4.79591e-08
4.76188e-08
4.7339e-08
4.71198e-08
4.69859e-08
4.68284e-08
4.67187e-08
4.67453e-08
4.68316e-08
4.68633e-08
4.69101e-08
4.70724e-08
4.73969e-08
4.77407e-08
4.81713e-08
4.85763e-08
4.89535e-08
4.96062e-08
5.03496e-08
5.11206e-08
5.21181e-08
5.31637e-08
5.42333e-08
5.5398e-08
5.6665e-08
5.823e-08
6.00662e-08
6.20047e-08
6.41502e-08
6.62824e-08
6.82711e-08
6.98952e-08
7.20676e-08
7.55289e-08
7.95966e-08
8.52451e-08
8.64086e-08
8.94785e-08
9.11027e-08
8.39248e-08
1.0049e-07
1.13277e-07
1.35215e-07
1.77939e-07
3.6272e-07
3.63059e-07
2.49599e-07
1.54489e-07
1.38428e-07
1.72512e-07
2.35859e-07
2.94201e-07
3.23078e-07
2.50139e-07
2.74264e-07
1.52215e-07
1.41279e-07
1.27566e-07
9.64024e-08
6.54827e-08
5.81514e-08
3.18326e-08
2.44902e-08
2.85981e-08
4.27069e-08
5.7143e-08
5.8514e-08
6.25568e-08
8.40806e-08
9.14507e-08
1.08287e-07
1.11031e-07
1.26932e-07
1.32397e-07
9.67001e-08
1.96004e-07
1.02395e-07
6.92625e-08
1.41584e-07
8.40048e-08
1.5663e-07
2.9373e-08
9.0616e-08
7.15596e-08
2.49528e-08
2.71717e-08
2.57768e-08
7.35667e-08
4.95185e-08
4.69883e-08
5.30849e-08
6.19655e-08
6.57618e-08
6.61892e-08
6.68872e-08
6.72485e-08
6.69626e-08
6.68685e-08
6.76748e-08
6.82642e-08
6.83034e-08
6.83683e-08
6.82226e-08
6.80608e-08
6.79659e-08
6.80157e-08
6.78115e-08
6.76812e-08
6.78936e-08
6.82636e-08
6.84374e-08
6.85655e-08
6.865e-08
6.86595e-08
6.84275e-08
6.87475e-08
6.93853e-08
6.95191e-08
6.94522e-08
6.93456e-08
6.91145e-08
6.89947e-08
6.9074e-08
6.89747e-08
6.90302e-08
6.92134e-08
6.9331e-08
6.9441e-08
6.98054e-08
7.03202e-08
7.07034e-08
7.10419e-08
7.15094e-08
7.191e-08
7.22411e-08
7.25108e-08
7.28029e-08
7.31313e-08
7.33723e-08
7.35067e-08
7.36297e-08
7.38631e-08
7.42383e-08
7.46296e-08
7.49727e-08
7.51763e-08
7.53204e-08
7.58081e-08
7.64872e-08
7.68675e-08
7.68053e-08
7.67612e-08
7.71122e-08
7.78269e-08
7.78841e-08
7.76487e-08
7.72869e-08
7.82266e-08
7.79579e-08
7.89741e-08
7.66953e-08
8.09586e-08
7.10835e-08
9.06993e-08
9.05215e-08
2.35997e-08
4.42439e-08
1.90384e-09
1.1052e-09
1.29244e-09
1.86389e-09
2.46548e-09
5.5483e-09
6.51281e-09
7.58638e-09
1.18391e-08
2.20135e-08
4.33911e-08
9.06361e-08
1.26346e-07
1.36502e-07
1.42628e-07
1.46838e-07
1.51427e-07
1.57133e-07
1.64564e-07
1.79951e-07
1.97202e-07
2.02413e-07
1.93723e-07
1.77043e-07
1.55696e-07
1.37517e-07
1.30283e-07
1.3069e-07
1.32354e-07
1.23741e-07
1.00389e-07
9.34405e-08
1.00549e-07
7.94561e-08
4.99532e-08
4.27136e-08
5.37405e-08
7.91889e-08
1.01687e-07
6.05713e-08
3.57097e-08
3.21422e-08
3.31938e-08
3.53266e-08
4.15153e-08
3.99612e-08
2.78384e-08
2.10427e-08
2.09476e-08
2.25939e-08
2.20487e-08
2.14343e-08
2.19346e-08
2.87563e-08
4.6167e-08
5.98446e-08
6.29504e-08
4.75108e-08
2.78437e-08
2.43967e-08
2.8232e-08
2.93918e-08
2.29553e-08
2.59257e-08
4.66779e-08
7.12981e-08
7.73968e-08
7.7659e-08
6.85335e-08
5.40054e-08
4.71545e-08
4.78199e-08
5.58526e-08
6.766e-08
7.84627e-08
8.9323e-08
9.11956e-08
9.30997e-08
9.55299e-08
9.94596e-08
1.06858e-07
1.09521e-07
1.08967e-07
1.07093e-07
1.01098e-07
9.03178e-08
8.17812e-08
7.2797e-08
6.63868e-08
6.21798e-08
6.21499e-08
6.46799e-08
5.06654e-08
6.04872e-08
6.3126e-08
6.53767e-08
6.4221e-08
6.89938e-08
6.47487e-08
4.85523e-08
3.30341e-08
2.67387e-08
1.91643e-08
1.59269e-08
1.51627e-08
1.53058e-08
1.44764e-08
1.48989e-08
1.24564e-08
1.13285e-08
1.20586e-08
1.14016e-08
1.59375e-08
2.76406e-08
1.88456e-08
1.39895e-08
1.28075e-08
1.38647e-08
1.90694e-08
2.82338e-08
4.39676e-08
2.20914e-08
1.59564e-08
2.67825e-08
2.29103e-08
2.12529e-08
1.74014e-08
1.61752e-08
1.32335e-08
1.4628e-08
1.71834e-08
1.77098e-08
1.90189e-08
1.81096e-08
1.73934e-08
1.68556e-08
1.71658e-08
1.83756e-08
1.89279e-08
1.99834e-08
1.9875e-08
2.01412e-08
2.07397e-08
2.13303e-08
2.16816e-08
2.22019e-08
2.29265e-08
2.40351e-08
2.51013e-08
2.5521e-08
2.58402e-08
2.65884e-08
2.76576e-08
2.9112e-08
3.05706e-08
3.16206e-08
3.2265e-08
3.31316e-08
3.44492e-08
3.59556e-08
3.77223e-08
4.02325e-08
4.25814e-08
4.43002e-08
4.61705e-08
4.90133e-08
5.2412e-08
5.5269e-08
5.96928e-08
6.59576e-08
7.13715e-08
7.68854e-08
8.3409e-08
9.01375e-08
1.02287e-07
1.21308e-07
1.43672e-07
1.64837e-07
1.82973e-07
2.10703e-07
2.52535e-07
2.7902e-07
2.85747e-07
3.06829e-07
2.97317e-07
2.55089e-07
2.183e-07
1.87118e-07
1.63221e-07
1.46029e-07
1.28616e-07
1.12546e-07
1.01707e-07
9.44939e-08
8.92342e-08
8.55508e-08
8.15099e-08
7.61e-08
7.14227e-08
6.76175e-08
6.4708e-08
6.24345e-08
5.98626e-08
5.81266e-08
5.70332e-08
5.50296e-08
5.2443e-08
5.01847e-08
4.87215e-08
4.83488e-08
4.8281e-08
4.75046e-08
4.55771e-08
4.40238e-08
4.33915e-08
4.28734e-08
4.26075e-08
4.25064e-08
4.21391e-08
4.16322e-08
4.13531e-08
4.13658e-08
4.18443e-08
4.26421e-08
4.26315e-08
4.19635e-08
4.25505e-08
4.39913e-08
4.56483e-08
4.7617e-08
4.87616e-08
4.94887e-08
5.06267e-08
5.31308e-08
5.47796e-08
5.54963e-08
5.75113e-08
6.08773e-08
6.57665e-08
7.03973e-08
7.3824e-08
7.49265e-08
7.39313e-08
7.49103e-08
7.93976e-08
8.60875e-08
9.25514e-08
9.49853e-08
9.24294e-08
8.94969e-08
8.9013e-08
9.16051e-08
9.59353e-08
9.8443e-08
9.34878e-08
8.60494e-08
8.25318e-08
8.13075e-08
8.18134e-08
8.25305e-08
7.94405e-08
7.3857e-08
6.8787e-08
6.61312e-08
6.48189e-08
6.27531e-08
6.0333e-08
5.80256e-08
5.55461e-08
5.31203e-08
5.1261e-08
4.98243e-08
4.87719e-08
4.73401e-08
4.49683e-08
4.31077e-08
4.20691e-08
4.14639e-08
4.08129e-08
3.97574e-08
3.86511e-08
3.78614e-08
3.71983e-08
3.63951e-08
3.5795e-08
3.5424e-08
3.51151e-08
3.48579e-08
3.45913e-08
3.41013e-08
3.36681e-08
3.3469e-08
3.34031e-08
3.34632e-08
3.34974e-08
3.33671e-08
3.31838e-08
3.31197e-08
3.32627e-08
3.3599e-08
3.3816e-08
3.3884e-08
3.40126e-08
3.4361e-08
3.48885e-08
3.52532e-08
3.55217e-08
3.5999e-08
3.67097e-08
3.74249e-08
3.80873e-08
3.87973e-08
3.9658e-08
4.07674e-08
4.19782e-08
4.31503e-08
4.43779e-08
4.58105e-08
4.75328e-08
4.95297e-08
5.16723e-08
5.39416e-08
5.64322e-08
5.9302e-08
6.26894e-08
6.66723e-08
7.1195e-08
7.62331e-08
8.20106e-08
8.88187e-08
9.7094e-08
1.07037e-07
1.19019e-07
1.33875e-07
1.52843e-07
1.77133e-07
2.08271e-07
2.47779e-07
2.93967e-07
3.40748e-07
3.71691e-07
3.6255e-07
3.18395e-07
2.68871e-07
2.30419e-07
2.00371e-07
1.75064e-07
1.54373e-07
1.38063e-07
1.25353e-07
1.15243e-07
1.06727e-07
9.93383e-08
9.31568e-08
8.80203e-08
8.33175e-08
7.89845e-08
7.54131e-08
7.24222e-08
6.97023e-08
6.71656e-08
6.48326e-08
6.27908e-08
6.10155e-08
5.94353e-08
5.79401e-08
5.6433e-08
5.50896e-08
5.39843e-08
5.2968e-08
5.19454e-08
5.09756e-08
5.01743e-08
4.9464e-08
4.88051e-08
4.81426e-08
4.74779e-08
4.69729e-08
4.65845e-08
4.62042e-08
4.57698e-08
4.53331e-08
4.50143e-08
4.473e-08
4.44695e-08
4.43375e-08
4.43259e-08
4.42812e-08
4.41206e-08
4.40802e-08
4.42482e-08
4.44496e-08
4.45412e-08
4.46148e-08
4.47998e-08
4.51835e-08
4.56403e-08
4.61927e-08
4.67011e-08
4.7162e-08
4.77184e-08
4.84195e-08
4.92355e-08
5.02362e-08
5.13112e-08
5.2483e-08
5.37809e-08
5.5128e-08
5.65501e-08
5.82806e-08
5.98116e-08
6.15176e-08
6.31254e-08
6.62091e-08
6.91162e-08
7.34115e-08
7.392e-08
7.62162e-08
7.74061e-08
7.22161e-08
8.71586e-08
9.58093e-08
1.09989e-07
1.32491e-07
2.39888e-07
3.68694e-07
1.75749e-07
1.41148e-07
1.35364e-07
1.38962e-07
1.43838e-07
1.50055e-07
1.96122e-07
2.07066e-07
1.12483e-07
1.18127e-07
2.24524e-07
1.2121e-07
9.04622e-08
5.86652e-08
5.34777e-08
3.06172e-08
2.46028e-08
2.97647e-08
4.16319e-08
6.49104e-08
6.29585e-08
1.16607e-07
1.01337e-07
1.69995e-07
1.59432e-07
1.28504e-07
1.39259e-07
9.28446e-08
9.82716e-08
2.4316e-07
1.08735e-07
6.97458e-08
1.42449e-07
8.18019e-08
1.08836e-07
2.5354e-08
5.95439e-08
4.15962e-08
2.47285e-08
2.7456e-08
2.35636e-08
4.79626e-08
2.50238e-08
3.27541e-08
1.33382e-07
2.10774e-07
1.35687e-07
8.77828e-08
7.45068e-08
7.117e-08
6.9121e-08
6.74196e-08
6.51581e-08
6.5248e-08
6.67305e-08
6.70979e-08
6.76365e-08
6.7819e-08
6.68132e-08
6.68876e-08
6.71204e-08
6.65451e-08
6.55694e-08
6.59506e-08
6.66569e-08
6.63179e-08
6.55978e-08
6.54745e-08
6.59051e-08
6.63749e-08
6.64685e-08
6.63161e-08
6.612e-08
6.65498e-08
6.59925e-08
6.56701e-08
6.6519e-08
6.77641e-08
6.85483e-08
6.88248e-08
6.87812e-08
6.8649e-08
6.85812e-08
6.86057e-08
6.87802e-08
6.90955e-08
6.90303e-08
6.98892e-08
7.0904e-08
7.06647e-08
6.99324e-08
6.97399e-08
7.00281e-08
7.05226e-08
7.10642e-08
7.15017e-08
7.18057e-08
7.20309e-08
7.22524e-08
7.25227e-08
7.28588e-08
7.3268e-08
7.37335e-08
7.42349e-08
7.46612e-08
7.47873e-08
7.46925e-08
7.46666e-08
7.51663e-08
7.60112e-08
7.61869e-08
7.55746e-08
7.51976e-08
7.59613e-08
7.65511e-08
7.5121e-08
7.66063e-08
7.74043e-08
8.31599e-08
7.16934e-08
9.06071e-08
8.82209e-08
2.27549e-08
4.36409e-08
8.75017e-10
9.7262e-10
1.80163e-09
4.25717e-09
4.12818e-09
7.89777e-09
1.08914e-08
9.75582e-09
1.26144e-08
2.10712e-08
3.94496e-08
7.91195e-08
1.12809e-07
1.21127e-07
1.29099e-07
1.33601e-07
1.34964e-07
1.38685e-07
1.4692e-07
1.6189e-07
1.72353e-07
1.69539e-07
1.58225e-07
1.43122e-07
1.27003e-07
1.14836e-07
1.09808e-07
1.09495e-07
1.10178e-07
1.09394e-07
8.98923e-08
7.27988e-08
6.56355e-08
4.79821e-08
3.0149e-08
2.67421e-08
3.38872e-08
5.26145e-08
7.07078e-08
4.01709e-08
2.3285e-08
1.80293e-08
1.80319e-08
2.26703e-08
2.8833e-08
2.67422e-08
1.92023e-08
1.3415e-08
1.12042e-08
1.10565e-08
1.15985e-08
1.34144e-08
1.61164e-08
2.32368e-08
3.2253e-08
2.81812e-08
3.14865e-08
3.03963e-08
2.13997e-08
2.16581e-08
2.37994e-08
1.90361e-08
1.41711e-08
1.36019e-08
1.78791e-08
2.86529e-08
4.80607e-08
6.64973e-08
5.75588e-08
4.1387e-08
3.32947e-08
3.17555e-08
3.68694e-08
5.06649e-08
7.9385e-08
9.0127e-08
8.87438e-08
8.73823e-08
8.62207e-08
8.52765e-08
8.4788e-08
8.48783e-08
8.52166e-08
8.60158e-08
8.29385e-08
8.00996e-08
7.72311e-08
7.4123e-08
7.0357e-08
6.58749e-08
6.47844e-08
6.44372e-08
6.77064e-08
7.32669e-08
7.82459e-08
5.35893e-08
4.82476e-08
4.23161e-08
4.62973e-08
4.37448e-08
4.37679e-08
3.69906e-08
2.53798e-08
1.75914e-08
1.48753e-08
1.15038e-08
1.04097e-08
1.05849e-08
1.05153e-08
1.10916e-08
1.34136e-08
1.18159e-08
9.89518e-09
1.03736e-08
9.27026e-09
1.30091e-08
1.80696e-08
1.45734e-08
1.13423e-08
1.01e-08
1.28531e-08
1.79941e-08
3.13551e-08
3.56953e-08
1.96521e-08
1.3531e-08
2.32287e-08
2.11167e-08
2.00976e-08
1.73114e-08
1.61486e-08
1.27938e-08
1.41109e-08
1.65405e-08
1.67764e-08
1.71242e-08
1.75215e-08
1.69386e-08
1.65647e-08
1.74455e-08
1.84191e-08
1.87696e-08
1.96174e-08
1.94626e-08
1.9635e-08
2.04045e-08
2.14736e-08
2.24543e-08
2.32373e-08
2.33938e-08
2.3852e-08
2.48275e-08
2.59588e-08
2.70149e-08
2.79408e-08
2.89288e-08
3.01058e-08
3.09761e-08
3.19251e-08
3.29956e-08
3.47489e-08
3.71751e-08
3.90992e-08
4.06134e-08
4.2506e-08
4.52861e-08
4.82959e-08
5.08773e-08
5.43827e-08
6.00155e-08
6.5921e-08
7.02278e-08
7.52048e-08
8.15302e-08
9.12068e-08
1.05389e-07
1.22684e-07
1.38389e-07
1.52341e-07
1.67917e-07
1.86726e-07
1.96915e-07
2.04609e-07
2.23708e-07
2.24238e-07
2.06758e-07
1.81573e-07
1.53144e-07
1.35868e-07
1.2496e-07
1.14086e-07
1.03958e-07
9.63228e-08
8.89218e-08
8.17624e-08
7.74213e-08
7.46163e-08
7.17187e-08
6.82414e-08
6.39413e-08
6.03154e-08
5.83093e-08
5.74664e-08
5.64789e-08
5.45488e-08
5.1572e-08
4.90212e-08
4.77775e-08
4.74313e-08
4.75407e-08
4.71571e-08
4.54063e-08
4.32331e-08
4.22752e-08
4.23957e-08
4.23717e-08
4.2443e-08
4.24826e-08
4.16547e-08
4.05335e-08
4.01302e-08
4.08162e-08
4.22808e-08
4.32976e-08
4.31724e-08
4.2017e-08
4.1754e-08
4.27436e-08
4.48192e-08
4.75863e-08
4.94229e-08
5.02326e-08
5.07198e-08
5.19319e-08
5.31292e-08
5.55324e-08
5.82428e-08
6.14231e-08
6.68253e-08
7.02635e-08
7.11868e-08
7.16177e-08
7.23304e-08
7.64329e-08
8.37362e-08
9.08211e-08
9.51e-08
9.54429e-08
9.10176e-08
8.71959e-08
8.85044e-08
9.47634e-08
1.00081e-07
9.92613e-08
9.3392e-08
8.64913e-08
8.29466e-08
8.29439e-08
8.42895e-08
8.17739e-08
7.58898e-08
7.13616e-08
6.84828e-08
6.6556e-08
6.51836e-08
6.25964e-08
5.91101e-08
5.64416e-08
5.41494e-08
5.21176e-08
5.06644e-08
4.96238e-08
4.84699e-08
4.66127e-08
4.43136e-08
4.24886e-08
4.13376e-08
4.05746e-08
4.00896e-08
3.9365e-08
3.84758e-08
3.75831e-08
3.65242e-08
3.55402e-08
3.50402e-08
3.4962e-08
3.48331e-08
3.44061e-08
3.39051e-08
3.33988e-08
3.30218e-08
3.28689e-08
3.28743e-08
3.28939e-08
3.28016e-08
3.26841e-08
3.25829e-08
3.25465e-08
3.26167e-08
3.28392e-08
3.30263e-08
3.31505e-08
3.34228e-08
3.37985e-08
3.41451e-08
3.44461e-08
3.47934e-08
3.53013e-08
3.59643e-08
3.66161e-08
3.72627e-08
3.79846e-08
3.88568e-08
3.99134e-08
4.10477e-08
4.21927e-08
4.33916e-08
4.48136e-08
4.64868e-08
4.83484e-08
5.03775e-08
5.25907e-08
5.50201e-08
5.7791e-08
6.09585e-08
6.45962e-08
6.88388e-08
7.37518e-08
7.92108e-08
8.52779e-08
9.24859e-08
1.01223e-07
1.11828e-07
1.24454e-07
1.39603e-07
1.5766e-07
1.79099e-07
2.04018e-07
2.29318e-07
2.50027e-07
2.61964e-07
2.60037e-07
2.42187e-07
2.18773e-07
1.97545e-07
1.77042e-07
1.58218e-07
1.42476e-07
1.29478e-07
1.18603e-07
1.09471e-07
1.01965e-07
9.56651e-08
9.01586e-08
8.53213e-08
8.09049e-08
7.70014e-08
7.37833e-08
7.09229e-08
6.828e-08
6.58851e-08
6.36892e-08
6.17603e-08
6.0091e-08
5.85763e-08
5.71157e-08
5.56987e-08
5.44688e-08
5.34669e-08
5.2494e-08
5.14752e-08
5.05291e-08
4.97324e-08
4.90782e-08
4.84626e-08
4.78302e-08
4.72483e-08
4.67863e-08
4.63527e-08
4.59554e-08
4.55372e-08
4.51454e-08
4.48479e-08
4.46017e-08
4.43737e-08
4.42399e-08
4.42294e-08
4.41896e-08
4.40539e-08
4.40723e-08
4.41842e-08
4.43636e-08
4.45255e-08
4.4672e-08
4.48659e-08
4.51775e-08
4.56477e-08
4.61784e-08
4.67575e-08
4.72855e-08
4.77855e-08
4.84001e-08
4.92497e-08
5.03424e-08
5.14624e-08
5.26033e-08
5.33934e-08
5.42905e-08
5.53211e-08
5.73018e-08
5.97647e-08
6.17952e-08
6.50371e-08
6.52222e-08
6.77014e-08
6.83434e-08
6.46986e-08
7.71931e-08
8.37472e-08
9.19779e-08
1.0722e-07
1.70106e-07
2.37527e-07
1.36267e-07
1.19485e-07
1.16228e-07
1.11318e-07
1.07441e-07
1.17791e-07
1.37152e-07
1.34262e-07
9.51688e-08
1.01315e-07
9.96291e-08
1.02402e-07
7.47846e-08
5.54945e-08
4.49608e-08
3.10775e-08
2.43398e-08
2.9877e-08
4.05409e-08
6.76991e-08
6.49451e-08
1.3632e-07
1.11994e-07
3.11642e-07
1.42517e-06
3.52541e-07
3.50983e-07
9.60613e-08
3.79355e-07
8.9865e-08
8.42241e-08
7.56116e-08
6.82794e-07
6.09328e-08
8.81901e-08
2.58463e-08
4.86352e-08
3.46564e-08
2.42947e-08
2.67361e-08
2.40016e-08
4.62247e-08
2.75798e-08
3.1411e-08
7.98073e-08
1.0115e-07
8.84882e-08
7.76928e-08
9.14461e-08
9.32279e-08
8.27658e-08
7.50675e-08
7.22996e-08
7.11445e-08
6.94978e-08
6.77851e-08
6.75789e-08
6.81901e-08
6.77214e-08
6.75053e-08
6.72203e-08
6.6503e-08
6.68436e-08
6.72058e-08
6.68993e-08
6.64212e-08
6.66721e-08
6.6953e-08
6.65286e-08
6.60508e-08
6.62588e-08
6.67866e-08
6.72064e-08
6.70982e-08
6.67707e-08
6.611e-08
6.59445e-08
6.57589e-08
6.58453e-08
6.65496e-08
6.74446e-08
6.79786e-08
6.81079e-08
6.81904e-08
6.81702e-08
6.81994e-08
6.84732e-08
6.89408e-08
6.92446e-08
6.92098e-08
6.98032e-08
7.03457e-08
7.02014e-08
6.9937e-08
7.00318e-08
7.04052e-08
7.08481e-08
7.12213e-08
7.14776e-08
7.1675e-08
7.19097e-08
7.2236e-08
7.26279e-08
7.30395e-08
7.3441e-08
7.39079e-08
7.44137e-08
7.46404e-08
7.45163e-08
7.44173e-08
7.47735e-08
7.55338e-08
7.59617e-08
7.55672e-08
7.5224e-08
7.57715e-08
7.65704e-08
7.66971e-08
7.54456e-08
7.76315e-08
7.7477e-08
8.22999e-08
7.08537e-08
8.96721e-08
8.79326e-08
2.27319e-08
4.33418e-08
7.46744e-10
1.12844e-09
4.36788e-09
3.94095e-09
5.42891e-09
6.76071e-08
1.61171e-08
1.34925e-08
1.83172e-08
3.33817e-08
5.37806e-08
8.80913e-08
1.11034e-07
1.16739e-07
1.22382e-07
1.26195e-07
1.27435e-07
1.29017e-07
1.34339e-07
1.43338e-07
1.47989e-07
1.44931e-07
1.36878e-07
1.27231e-07
1.18552e-07
1.02557e-07
8.75434e-08
9.70801e-08
1.13916e-07
1.1428e-07
7.56282e-08
4.84238e-08
3.82996e-08
2.78601e-08
2.17631e-08
2.11286e-08
2.29947e-08
2.8308e-08
3.50414e-08
2.50613e-08
1.62568e-08
1.32816e-08
1.3446e-08
1.73523e-08
2.31493e-08
2.13436e-08
1.41538e-08
9.53799e-09
7.81633e-09
7.80565e-09
8.97491e-09
1.07539e-08
1.29428e-08
1.64471e-08
1.76511e-08
1.61576e-08
1.91432e-08
2.35666e-08
2.55024e-08
3.17085e-08
2.6773e-08
1.57221e-08
1.13375e-08
1.0027e-08
1.07066e-08
1.37936e-08
1.90041e-08
2.53693e-08
2.86844e-08
2.61831e-08
2.16889e-08
2.07992e-08
2.38926e-08
3.31827e-08
4.93315e-08
7.31409e-08
9.84944e-08
9.46012e-08
9.13099e-08
8.8675e-08
8.65132e-08
8.4651e-08
8.29405e-08
6.97214e-08
7.21089e-08
7.80346e-08
7.64139e-08
7.45968e-08
7.26883e-08
7.08771e-08
6.91546e-08
6.84165e-08
6.86394e-08
7.16498e-08
7.78857e-08
8.63834e-08
8.27303e-08
6.03857e-08
3.97101e-08
3.75555e-08
3.00582e-08
3.14374e-08
2.87716e-08
2.78231e-08
2.63266e-08
1.81378e-08
1.41442e-08
1.18923e-08
1.01869e-08
9.74943e-09
9.82374e-09
1.01292e-08
1.22851e-08
1.48476e-08
1.31992e-08
1.00495e-08
9.3564e-09
8.32472e-09
1.22932e-08
1.62711e-08
1.39751e-08
1.11987e-08
1.00481e-08
1.31075e-08
1.99436e-08
3.79007e-08
3.44215e-08
1.75377e-08
1.18236e-08
1.96809e-08
2.05532e-08
1.95406e-08
1.96138e-08
1.88079e-08
1.5147e-08
1.31649e-08
1.34884e-08
1.65848e-08
1.71369e-08
1.89634e-08
1.8451e-08
1.7643e-08
1.82548e-08
1.88694e-08
1.92688e-08
2.05614e-08
2.12303e-08
2.17322e-08
2.2205e-08
2.27937e-08
2.35186e-08
2.45636e-08
2.55268e-08
2.63765e-08
2.6974e-08
2.793e-08
2.93198e-08
3.06442e-08
3.14918e-08
3.24936e-08
3.4037e-08
3.57699e-08
3.72068e-08
3.90968e-08
4.16262e-08
4.40935e-08
4.65438e-08
4.93978e-08
5.23198e-08
5.64858e-08
6.21627e-08
6.66865e-08
7.12709e-08
7.75489e-08
8.52841e-08
9.52809e-08
1.07906e-07
1.20913e-07
1.32321e-07
1.40236e-07
1.48816e-07
1.5662e-07
1.66642e-07
1.78737e-07
1.80079e-07
1.72153e-07
1.53289e-07
1.30205e-07
1.1879e-07
1.10865e-07
1.02885e-07
9.84209e-08
9.37754e-08
8.63623e-08
7.82315e-08
7.26458e-08
6.93564e-08
6.81274e-08
6.65693e-08
6.27786e-08
5.90702e-08
5.66439e-08
5.56455e-08
5.44434e-08
5.19451e-08
4.92582e-08
4.77926e-08
4.74617e-08
4.75338e-08
4.73129e-08
4.5979e-08
4.37673e-08
4.20073e-08
4.17361e-08
4.23849e-08
4.26751e-08
4.28061e-08
4.24797e-08
4.1325e-08
4.03807e-08
4.04634e-08
4.15926e-08
4.29369e-08
4.33621e-08
4.33208e-08
4.29413e-08
4.29128e-08
4.36514e-08
4.48623e-08
4.67642e-08
4.91329e-08
5.07652e-08
5.15208e-08
5.22653e-08
5.36134e-08
5.68536e-08
5.96723e-08
6.19967e-08
6.60852e-08
6.96061e-08
7.03347e-08
7.13743e-08
7.515e-08
8.1437e-08
8.89858e-08
9.40877e-08
9.56617e-08
9.3927e-08
9.00851e-08
8.99378e-08
9.48497e-08