/*--------------------------------*- C++ -*----------------------------------*\
| =========                 |                                                 |
| \\      /  F ield         | OpenFOAM: The Open Source CFD Toolbox           |
|  \\    /   O peration     | Version:  v2006                                 |
|   \\  /    A nd           | Website:  www.openfoam.com                      |
|    \\/     M anipulation  |                                                 |
\*---------------------------------------------------------------------------*/
FoamFile
{
    version     2.0;
    format      ascii;
    class       volScalarField;
    location    "6.6";
    object      p;
}
// * * * * * * * * * * * * * * * * * * * * * * * * * * * * * * * * * * * * * //

dimensions      [1 -1 -2 0 0 0 0];


internalField   nonuniform List<scalar> 
33000
(
7951.66
7951.19
7951.19
7951.21
7950.66
7949.54
7948.64
7947.98
7947.42
7946.85
7946.29
7945.68
7944.96
7944.08
7943.03
7942.04
7941.3
7940.58
7940.47
7940.38
7940.23
7939.83
7938.65
7937.14
7935.49
7933.76
7931.95
7930.08
7928.13
7926.09
7923.96
7921.75
7919.46
7917.07
7914.58
7911.99
7909.32
7906.57
7903.72
7900.76
7897.72
7894.57
7891.32
7887.97
7884.52
7880.97
7877.32
7873.58
7869.72
7865.77
7861.71
7857.56
7853.32
7848.98
7844.56
7840.06
7835.48
7830.83
7826.1
7821.28
7816.39
7811.44
7806.42
7801.33
7796.18
7790.98
7785.74
7780.48
7775.21
7769.93
7764.64
7759.32
7754
7748.59
7743.22
7738.06
7733.22
7728.98
7724.36
7714.98
7709.46
7702.52
7695.42
7688.54
7681.18
7673.29
7665.83
7657.86
7650.29
7642.26
7634.55
7626.52
7618.56
7610.53
7602.52
7594.32
7586.24
7577.46
7569.62
7560.41
7550.13
7540.62
7530.79
7521.76
7512.37
7503.22
7494.11
7485.03
7476.03
7467.17
7458.44
7449.86
7441.39
7433.07
7424.94
7416.83
7409.26
7401.18
7392.63
7384.75
7376.88
7369.41
7362.06
7354.97
7348.07
7341.35
7334.83
7328.49
7322.34
7316.34
7310.52
7304.86
7299.41
7294.13
7289.1
7284.28
7279.72
7275.41
7271.35
7267.59
7264.11
7260.95
7258.08
7255.54
7253.31
7251.39
7249.8
7248.55
7247.63
7247.05
7246.8
7246.88
7247.3
7248.04
7249.13
7250.54
7252.29
7254.35
7256.73
7259.43
7262.42
7265.72
7269.32
7273.22
7277.38
7281.82
7286.52
7291.48
7296.68
7302.12
7307.76
7313.63
7319.7
7325.96
7332.4
7339.01
7345.75
7352.65
7359.68
7366.83
7374.09
7381.46
7388.92
7396.45
7404.04
7411.67
7419.35
7427.07
7434.82
7442.58
7450.35
7458.12
7465.86
7473.59
7481.3
7488.97
7496.6
7504.18
7511.69
7519.14
7526.52
7533.84
7541.08
7548.24
7555.31
7562.29
7569.18
7575.97
7582.66
7589.26
7595.76
7602.15
7608.43
7614.62
7620.72
7626.7
7632.58
7638.35
7644.02
7649.59
7655.07
7660.46
7665.75
7670.95
7676.05
7681.07
7686.01
7690.88
7695.67
7700.4
7705.05
7709.64
7714.16
7718.63
7723.06
7727.43
7731.76
7736.05
7740.3
7744.5
7748.68
7752.83
7756.95
7761.05
7765.12
7769.18
7773.21
7777.22
7781.21
7785.19
7789.16
7793.11
7797.04
7800.96
7804.86
7808.74
7812.62
7816.48
7820.32
7824.14
7827.95
7831.73
7835.5
7839.24
7842.96
7846.66
7850.33
7853.97
7857.59
7861.17
7864.73
7868.26
7871.74
7875.2
7878.61
7881.99
7885.33
7888.64
7891.9
7895.12
7898.3
7901.44
7904.54
7907.59
7910.61
7913.58
7916.52
7919.4
7922.24
7925.02
7927.74
7930.39
7932.97
7935.47
7937.89
7940.23
7942.47
7944.62
7946.67
7948.61
7950.44
7952.16
7953.76
7955.24
7956.59
7957.81
7958.9
7959.85
7960.66
7961.33
7961.85
7962.23
7962.47
7962.55
7962.49
7962.27
7961.91
7961.41
7960.75
7959.95
7959
7957.9
7956.67
7955.3
7953.79
7952.16
7950.39
7948.51
7946.5
7944.38
7942.16
7939.83
7937.39
7934.87
7932.26
7929.57
7926.8
7923.96
7921.06
7918.1
7915.09
7912.03
7908.94
7905.81
7902.65
7899.47
7896.27
7893.07
7889.85
7886.63
7883.41
7880.21
7877.01
7873.83
7870.67
7867.53
7864.43
7861.35
7858.3
7855.29
7852.32
7849.38
7846.49
7843.64
7840.84
7838.08
7835.38
7832.72
7830.11
7827.55
7825.04
7822.58
7820.18
7817.82
7815.52
7813.26
7811.06
7808.9
7806.8
7804.74
7802.73
7800.77
7798.86
7797
7795.18
7793.4
7791.67
7789.98
7788.33
7786.72
7785.14
7783.6
7782.1
7780.63
7779.19
7777.78
7776.41
7775.07
7773.75
7772.47
7771.22
7769.99
7768.8
7767.63
7766.48
7765.36
7764.27
7763.2
7762.15
7761.13
7760.13
7759.16
7758.22
7757.3
7756.42
7755.57
7754.75
7753.97
7753.22
7752.5
7751.82
7751.18
7750.58
7750.01
7749.48
7748.97
7748.51
7748.09
7747.68
7747.38
7747.03
7746.66
7746.38
7746.1
7745.89
7745.71
7745.57
7745.46
7745.38
7745.34
7745.34
7745.36
7745.42
7745.5
7745.61
7745.77
7745.93
7746.15
7746.37
7746.53
7746.8
7747.04
7747.36
7747.66
7748.03
7748.38
7748.79
7749.19
7749.63
7750.07
7750.54
7751.01
7751.52
7752.02
7752.49
7752.98
7753.51
7753.98
7754.76
7755.23
7755.5
7756.04
7756.44
7756.91
7757.39
7757.9
7758.41
7758.95
7759.49
7760.04
7760.61
7761.18
7761.76
7762.34
7762.94
7763.53
7764.14
7764.74
7765.35
7765.97
7766.59
7767.21
7767.83
7768.46
7769.09
7769.72
7770.35
7770.98
7771.62
7772.25
7772.88
7773.52
7774.15
7774.79
7775.42
7776.05
7776.68
7777.31
7777.94
7778.56
7779.19
7779.81
7780.43
7781.04
7781.66
7782.27
7782.88
7783.48
7784.08
7784.68
7785.28
7785.87
7786.46
7787.04
7787.62
7788.2
7788.77
7789.34
7789.91
7790.47
7791.03
7791.58
7792.13
7792.67
7793.21
7793.74
7794.28
7794.8
7795.32
7795.84
7796.35
7796.86
7797.36
7797.86
7798.35
7798.84
7799.32
7799.8
7800.27
7800.89
7755.18
7754.85
7755.14
7754.83
7754.82
7753.12
7751.87
7751.45
7751.01
7750.51
7750.03
7749.47
7748.75
7747.79
7746.5
7745.08
7743.95
7743.61
7743.46
7743.14
7743.19
7743.07
7742.17
7740.81
7739.26
7737.58
7735.81
7733.97
7732.05
7730.06
7727.96
7725.76
7723.47
7721.08
7718.6
7716.02
7713.35
7710.61
7707.76
7704.8
7701.76
7698.61
7695.37
7692.02
7688.58
7685.04
7681.38
7677.63
7673.77
7669.81
7665.76
7661.6
7657.35
7653
7648.59
7644.1
7639.52
7634.86
7630.1
7625.27
7620.37
7615.4
7610.37
7605.27
7600.1
7594.88
7589.62
7584.33
7579.02
7573.69
7568.33
7562.91
7557.41
7551.81
7546.16
7540.5
7534.83
7529.71
7524.47
7519.11
7514.94
7509.34
7499.05
7492.41
7484.25
7477.3
7469.69
7462.44
7454.82
7446.32
7438.55
7430.19
7422.27
7414
7405.89
7397.37
7388.94
7379.99
7371.01
7361.86
7352.82
7344.31
7335.57
7326
7316.53
7307.01
7297.79
7288.6
7279.8
7270.84
7262.14
7253.43
7244.88
7236.45
7228.19
7219.99
7212
7203.97
7196.04
7188.5
7180.76
7172.94
7165.59
7158.39
7151.51
7144.79
7138.25
7131.9
7125.71
7119.73
7113.88
7108.23
7102.74
7097.47
7092.41
7087.59
7083.03
7078.72
7074.67
7070.9
7067.43
7064.25
7061.38
7058.83
7056.59
7054.66
7053.08
7051.83
7050.91
7050.33
7050.07
7050.15
7050.57
7051.33
7052.42
7053.83
7055.57
7057.64
7060.02
7062.73
7065.74
7069.05
7072.67
7076.57
7080.74
7085.19
7089.91
7094.88
7100.1
7105.54
7111.21
7117.09
7123.17
7129.45
7135.91
7142.53
7149.3
7156.21
7163.25
7170.42
7177.69
7185.07
7192.54
7200.09
7207.69
7215.35
7223.04
7230.77
7238.53
7246.3
7254.09
7261.87
7269.63
7277.37
7285.08
7292.76
7300.39
7307.98
7315.51
7322.97
7330.36
7337.68
7344.92
7352.09
7359.16
7366.14
7373.03
7379.83
7386.53
7393.13
7399.62
7406.01
7412.3
7418.49
7424.58
7430.56
7436.44
7442.21
7447.88
7453.45
7458.92
7464.3
7469.59
7474.79
7479.9
7484.92
7489.86
7494.72
7499.51
7504.23
7508.88
7513.47
7517.99
7522.46
7526.88
7531.25
7535.58
7539.87
7544.11
7548.31
7552.49
7556.64
7560.76
7564.85
7568.93
7572.98
7577.01
7581.02
7585.01
7588.99
7592.95
7596.9
7600.83
7604.75
7608.66
7612.54
7616.42
7620.28
7624.12
7627.94
7631.75
7635.54
7639.31
7643.06
7646.78
7650.48
7654.15
7657.8
7661.42
7665.01
7668.57
7672.1
7675.59
7679.05
7682.47
7685.85
7689.2
7692.5
7695.77
7698.99
7702.18
7705.32
7708.42
7711.48
7714.5
7717.48
7720.42
7723.31
7726.15
7728.94
7731.66
7734.32
7736.91
7739.42
7741.84
7744.19
7746.44
7748.59
7750.65
7752.59
7754.43
7756.16
7757.76
7759.24
7760.6
7761.82
7762.91
7763.87
7764.68
7765.36
7765.89
7766.27
7766.5
7766.59
7766.53
7766.32
7765.95
7765.44
7764.79
7763.98
7763.03
7761.93
7760.7
7759.32
7757.81
7756.17
7754.4
7752.51
7750.5
7748.38
7746.14
7743.81
7741.37
7738.84
7736.22
7733.52
7730.74
7727.9
7724.99
7722.02
7719
7715.94
7712.84
7709.7
7706.54
7703.35
7700.15
7696.93
7693.71
7690.48
7687.26
7684.05
7680.85
7677.66
7674.49
7671.35
7668.24
7665.15
7662.1
7659.09
7656.11
7653.17
7650.28
7647.43
7644.62
7641.86
7639.15
7636.49
7633.88
7631.32
7628.81
7626.35
7623.94
7621.59
7619.28
7617.03
7614.82
7612.67
7610.56
7608.51
7606.5
7604.54
7602.63
7600.76
7598.94
7597.16
7595.43
7593.74
7592.09
7590.47
7588.9
7587.36
7585.85
7584.38
7582.94
7581.54
7580.16
7578.82
7577.51
7576.22
7574.97
7573.74
7572.54
7571.37
7570.23
7569.11
7568.01
7566.94
7565.89
7564.87
7563.87
7562.89
7561.95
7561.03
7560.15
7559.29
7558.48
7557.69
7556.94
7556.22
7555.55
7554.91
7554.29
7553.72
7553.19
7552.69
7552.28
7551.85
7551.38
7551.02
7550.65
7550.34
7550.05
7549.8
7549.6
7549.42
7549.28
7549.17
7549.11
7549.06
7549.06
7549.08
7549.16
7549.23
7549.39
7549.51
7549.64
7549.82
7550.03
7550.24
7550.51
7550.77
7551.09
7551.41
7551.76
7552.14
7552.52
7552.95
7553.37
7553.86
7554.32
7554.77
7555.26
7555.74
7556.27
7556.92
7557.56
7557.71
7558.37
7558.74
7559.2
7559.67
7560.15
7560.63
7561.14
7561.65
7562.18
7562.72
7563.26
7563.82
7564.39
7564.96
7565.54
7566.13
7566.72
7567.32
7567.92
7568.53
7569.14
7569.76
7570.38
7571
7571.63
7572.26
7572.88
7573.52
7574.15
7574.78
7575.42
7576.05
7576.68
7577.32
7577.95
7578.59
7579.22
7579.85
7580.48
7581.11
7581.74
7582.37
7582.99
7583.61
7584.23
7584.85
7585.46
7586.07
7586.68
7587.29
7587.89
7588.49
7589.09
7589.68
7590.27
7590.85
7591.43
7592.01
7592.58
7593.15
7593.72
7594.28
7594.84
7595.39
7595.94
7596.48
7597.02
7597.56
7598.09
7598.61
7599.13
7599.65
7600.16
7600.67
7601.17
7601.67
7602.16
7602.65
7603.13
7603.62
7604.08
7604.7
7558.52
7557.39
7556.37
7556.09
7555.24
7553.56
7553.81
7554.47
7554.61
7554.47
7554.2
7553.75
7553.07
7552.13
7550.89
7549.58
7548.5
7547.91
7547.5
7547.06
7546.77
7546.3
7545.4
7544.25
7542.89
7541.35
7539.67
7537.89
7536.03
7534.09
7532.04
7529.87
7527.61
7525.24
7522.79
7520.24
7517.59
7514.85
7512
7509.05
7506.02
7502.89
7499.64
7496.3
7492.86
7489.31
7485.66
7481.91
7478.05
7474.09
7470.03
7465.87
7461.62
7457.28
7452.86
7448.35
7443.76
7439.06
7434.28
7429.44
7424.53
7419.54
7414.48
7409.36
7404.17
7398.93
7393.63
7388.29
7382.91
7377.48
7372.01
7366.5
7360.91
7355.25
7349.52
7343.74
7337.95
7332.26
7326.44
7320.25
7314.78
7309.06
7303.2
7299.05
7292.27
7281.06
7274.04
7265.2
7258.04
7249.88
7242.46
7234.52
7225.87
7217.82
7209.25
7200.97
7192.36
7183.74
7174.87
7166.03
7156.74
7147.43
7137.88
7128.74
7119.76
7111.07
7101.94
7092.57
7083.25
7074.34
7065.43
7056.85
7048.16
7039.79
7031.36
7023.17
7015.04
7007.08
6999.04
6991.29
6983.51
6976.06
6968.84
6961.67
6954.54
6947.74
6941.17
6934.82
6928.67
6922.61
6916.77
6911.05
6905.61
6900.29
6895.25
6890.39
6885.8
6881.48
6877.42
6873.67
6870.17
6867
6864.11
6861.55
6859.29
6857.38
6855.79
6854.55
6853.63
6853.03
6852.78
6852.87
6853.29
6854.07
6855.17
6856.59
6858.34
6860.42
6862.82
6865.54
6868.57
6871.91
6875.54
6879.46
6883.66
6888.13
6892.88
6897.87
6903.12
6908.59
6914.29
6920.2
6926.31
6932.61
6939.1
6945.75
6952.56
6959.5
6966.57
6973.77
6981.08
6988.49
6995.99
7003.56
7011.19
7018.87
7026.6
7034.36
7042.14
7049.94
7057.74
7065.55
7073.34
7081.11
7088.84
7096.53
7104.17
7111.78
7119.32
7126.8
7134.21
7141.54
7148.8
7155.97
7163.05
7170.04
7176.95
7183.75
7190.45
7197.05
7203.54
7209.94
7216.23
7222.42
7228.5
7234.48
7240.35
7246.12
7251.78
7257.35
7262.82
7268.2
7273.48
7278.67
7283.78
7288.8
7293.74
7298.59
7303.37
7308.08
7312.73
7317.31
7321.84
7326.31
7330.72
7335.09
7339.41
7343.69
7347.93
7352.13
7356.3
7360.45
7364.57
7368.66
7372.73
7376.77
7380.8
7384.8
7388.8
7392.78
7396.74
7400.69
7404.62
7408.54
7412.44
7416.34
7420.22
7424.08
7427.92
7431.75
7435.56
7439.35
7443.13
7446.88
7450.61
7454.32
7458
7461.65
7465.28
7468.88
7472.44
7475.98
7479.48
7482.94
7486.37
7489.77
7493.12
7496.43
7499.71
7502.94
7506.14
7509.29
7512.4
7515.47
7518.5
7521.49
7524.44
7527.34
7530.19
7532.98
7535.72
7538.39
7540.99
7543.51
7545.95
7548.31
7550.57
7552.74
7554.81
7556.77
7558.61
7560.35
7561.97
7563.46
7564.82
7566.05
7567.15
7568.12
7568.94
7569.62
7570.15
7570.54
7570.78
7570.87
7570.81
7570.6
7570.24
7569.72
7569.06
7568.25
7567.3
7566.2
7564.95
7563.57
7562.05
7560.4
7558.62
7556.72
7554.7
7552.56
7550.32
7547.97
7545.52
7542.97
7540.34
7537.63
7534.84
7531.98
7529.05
7526.07
7523.04
7519.96
7516.84
7513.69
7510.52
7507.32
7504.1
7500.87
7497.63
7494.39
7491.16
7487.93
7484.72
7481.52
7478.34
7475.19
7472.06
7468.97
7465.91
7462.88
7459.89
7456.95
7454.05
7451.19
7448.38
7445.62
7442.9
7440.23
7437.62
7435.06
7432.54
7430.08
7427.67
7425.31
7423.01
7420.75
7418.55
7416.4
7414.29
7412.24
7410.23
7408.27
7406.36
7404.49
7402.67
7400.89
7399.15
7397.46
7395.8
7394.19
7392.61
7391.07
7389.56
7388.09
7386.65
7385.24
7383.87
7382.52
7381.21
7379.92
7378.66
7377.44
7376.23
7375.06
7373.91
7372.79
7371.69
7370.61
7369.56
7368.53
7367.53
7366.56
7365.61
7364.69
7363.8
7362.95
7362.12
7361.34
7360.59
7359.87
7359.19
7358.54
7357.94
7357.41
7356.87
7356.31
7355.85
7355.39
7354.99
7354.61
7354.27
7353.95
7353.68
7353.43
7353.23
7353.05
7352.91
7352.81
7352.74
7352.72
7352.71
7352.77
7352.81
7352.86
7352.97
7353.09
7353.25
7353.44
7353.66
7353.88
7354.16
7354.41
7354.76
7355.04
7355.46
7355.79
7356.27
7356.66
7357.09
7357.52
7357.98
7358.47
7359.23
7359.74
7360.01
7360.5
7360.87
7361.36
7361.91
7362.4
7362.86
7363.35
7363.84
7364.34
7364.86
7365.38
7365.91
7366.46
7367.01
7367.57
7368.14
7368.72
7369.3
7369.89
7370.49
7371.09
7371.7
7372.31
7372.92
7373.54
7374.16
7374.79
7375.42
7376.04
7376.68
7377.31
7377.94
7378.58
7379.21
7379.85
7380.48
7381.12
7381.75
7382.39
7383.02
7383.66
7384.29
7384.92
7385.55
7386.17
7386.8
7387.42
7388.04
7388.66
7389.27
7389.89
7390.5
7391.1
7391.71
7392.31
7392.9
7393.49
7394.08
7394.67
7395.25
7395.83
7396.4
7396.97
7397.54
7398.1
7398.66
7399.21
7399.76
7400.3
7400.84
7401.38
7401.91
7402.43
7402.96
7403.47
7403.98
7404.49
7404.99
7405.49
7405.99
7406.47
7406.96
7407.44
7407.9
7408.53
7359.52
7358.31
7355.53
7352.27
7348.57
7349.78
7353.49
7356.08
7357.21
7357.68
7357.82
7357.69
7357.24
7356.51
7355.56
7354.52
7353.61
7352.87
7352.22
7351.61
7351
7350.3
7349.35
7348.2
7346.88
7345.41
7343.78
7342.06
7340.25
7338.34
7336.31
7334.17
7331.93
7329.6
7327.17
7324.64
7322.02
7319.29
7316.46
7313.53
7310.5
7307.37
7304.13
7300.79
7297.35
7293.8
7290.15
7286.4
7282.55
7278.58
7274.52
7270.35
7266.1
7261.75
7257.31
7252.79
7248.16
7243.45
7238.66
7233.79
7228.86
7223.84
7218.75
7213.6
7208.37
7203.08
7197.73
7192.31
7186.85
7181.35
7175.78
7170.17
7164.48
7158.7
7152.84
7146.94
7141.01
7135.07
7129.09
7123.03
7117.01
7110.85
7104.44
7098.27
7091.2
7084.74
7078.4
7073.84
7066.8
7053.98
7046.49
7037.53
7029.89
7021.72
7013.62
7004.37
6995.94
6986.79
6978.04
6968.84
6959.81
6950.56
6941.82
6932.6
6923.34
6913.89
6904.55
6895.29
6886.6
6878.14
6869.07
6860.07
6851.23
6842.67
6834.32
6825.97
6817.86
6809.72
6801.87
6794.04
6786.44
6778.8
6771.46
6764.08
6757.09
6750.26
6743.63
6737.15
6730.88
6724.91
6719.04
6713.39
6707.84
6702.55
6697.45
6692.62
6688.05
6683.72
6679.65
6675.87
6672.37
6669.17
6666.3
6663.71
6661.46
6659.53
6657.95
6656.7
6655.78
6655.19
6654.94
6655.03
6655.48
6656.25
6657.36
6658.8
6660.58
6662.67
6665.09
6667.83
6670.9
6674.27
6677.93
6681.88
6686.12
6690.63
6695.42
6700.45
6705.74
6711.26
6717
6722.95
6729.11
6735.46
6741.99
6748.68
6755.53
6762.52
6769.65
6776.9
6784.25
6791.71
6799.24
6806.85
6814.52
6822.25
6830.02
6837.82
6845.65
6853.48
6861.32
6869.16
6876.98
6884.78
6892.55
6900.28
6907.95
6915.57
6923.14
6930.65
6938.08
6945.43
6952.7
6959.88
6966.98
6973.99
6980.9
6987.71
6994.41
7001.01
7007.51
7013.91
7020.21
7026.39
7032.47
7038.44
7044.3
7050.07
7055.74
7061.31
7066.77
7072.14
7077.41
7082.6
7087.7
7092.72
7097.65
7102.5
7107.27
7111.97
7116.61
7121.19
7125.71
7130.17
7134.58
7138.94
7143.25
7147.52
7151.75
7155.95
7160.12
7164.26
7168.37
7172.46
7176.52
7180.55
7184.58
7188.58
7192.58
7196.56
7200.52
7204.46
7208.39
7212.31
7216.22
7220.12
7224
7227.86
7231.71
7235.55
7239.37
7243.17
7246.95
7250.72
7254.45
7258.17
7261.87
7265.53
7269.17
7272.78
7276.35
7279.9
7283.41
7286.89
7290.33
7293.74
7297.11
7300.44
7303.72
7306.97
7310.18
7313.35
7316.48
7319.57
7322.62
7325.62
7328.58
7331.5
7334.36
7337.17
7339.92
7342.61
7345.23
7347.77
7350.23
7352.6
7354.88
7357.07
7359.15
7361.13
7362.99
7364.75
7366.38
7367.89
7369.27
7370.51
7371.63
7372.6
7373.43
7374.12
7374.67
7375.06
7375.31
7375.4
7375.34
7375.13
7374.76
7374.25
7373.58
7372.77
7371.8
7370.7
7369.44
7368.05
7366.52
7364.86
7363.06
7361.14
7359.1
7356.95
7354.68
7352.31
7349.84
7347.28
7344.63
7341.89
7339.08
7336.2
7333.25
7330.25
7327.19
7324.09
7320.95
7317.78
7314.58
7311.36
7308.12
7304.87
7301.61
7298.35
7295.1
7291.85
7288.62
7285.4
7282.21
7279.04
7275.89
7272.78
7269.71
7266.67
7263.67
7260.72
7257.8
7254.94
7252.12
7249.35
7246.63
7243.96
7241.34
7238.77
7236.25
7233.79
7231.38
7229.02
7226.71
7224.45
7222.25
7220.1
7217.99
7215.94
7213.93
7211.97
7210.06
7208.19
7206.36
7204.58
7202.84
7201.14
7199.48
7197.86
7196.28
7194.73
7193.22
7191.75
7190.31
7188.9
7187.52
7186.18
7184.86
7183.57
7182.31
7181.07
7179.87
7178.69
7177.53
7176.4
7175.3
7174.22
7173.16
7172.13
7171.12
7170.14
7169.19
7168.27
7167.38
7166.52
7165.69
7164.9
7164.14
7163.42
7162.77
7162.13
7161.48
7160.9
7160.35
7159.84
7159.36
7158.92
7158.5
7158.13
7157.78
7157.47
7157.2
7156.95
7156.76
7156.59
7156.48
7156.36
7156.33
7156.28
7156.25
7156.26
7156.32
7156.39
7156.52
7156.64
7156.83
7157.01
7157.24
7157.47
7157.75
7158.04
7158.4
7158.74
7159.07
7159.47
7159.83
7160.26
7160.68
7161.45
7161.93
7162.19
7162.65
7163.09
7163.56
7164.09
7164.58
7165.03
7165.52
7166.01
7166.5
7167
7167.51
7168.03
7168.55
7169.08
7169.63
7170.18
7170.74
7171.31
7171.88
7172.46
7173.05
7173.65
7174.25
7174.85
7175.46
7176.08
7176.69
7177.32
7177.94
7178.57
7179.2
7179.83
7180.46
7181.1
7181.73
7182.37
7183.01
7183.65
7184.28
7184.92
7185.56
7186.19
7186.83
7187.46
7188.1
7188.73
7189.36
7189.99
7190.61
7191.24
7191.86
7192.48
7193.09
7193.71
7194.32
7194.92
7195.53
7196.13
7196.73
7197.32
7197.91
7198.5
7199.08
7199.66
7200.23
7200.8
7201.37
7201.93
7202.49
7203.04
7203.59
7204.13
7204.67
7205.21
7205.74
7206.27
7206.79
7207.31
7207.82
7208.33
7208.83
7209.33
7209.82
7210.31
7210.79
7211.27
7211.74
7212.36
7162.81
7162.46
7159.11
7154.18
7150.25
7152.24
7156.15
7159.01
7160.43
7161.21
7161.62
7161.66
7161.39
7160.89
7160.19
7159.38
7158.57
7157.8
7157.05
7156.28
7155.48
7154.6
7153.58
7152.41
7151.11
7149.68
7148.11
7146.42
7144.65
7142.76
7140.76
7138.66
7136.45
7134.14
7131.74
7129.23
7126.62
7123.91
7121.09
7118.18
7115.17
7112.04
7108.81
7105.47
7102.03
7098.48
7094.83
7091.08
7087.23
7083.27
7079.2
7075.02
7070.75
7066.39
7061.93
7057.38
7052.74
7048.01
7043.2
7038.31
7033.34
7028.29
7023.17
7017.97
7012.69
7007.34
7001.92
6996.44
6990.89
6985.29
6979.63
6973.92
6968.14
6962.27
6956.32
6950.29
6944.21
6938.08
6931.9
6925.73
6919.52
6913.22
6906.81
6900.33
6893.59
6886.54
6879.54
6872.51
6865.96
6856.82
6853.38
6845.83
6833.29
6825.81
6816.67
6808.65
6800.06
6791.53
6781.8
6773.07
6763.56
6754.66
6745.09
6735.97
6726.58
6717.61
6708.58
6699.2
6690.18
6680.69
6671.57
6662.92
6654.43
6645.81
6636.98
6628.59
6620.36
6612.39
6604.31
6596.56
6588.76
6581.33
6573.86
6566.7
6559.46
6552.58
6545.63
6539.16
6532.75
6526.62
6520.71
6514.91
6509.58
6504.2
6499.17
6494.26
6489.6
6485.26
6481.15
6477.45
6473.91
6470.73
6467.8
6465.24
6462.97
6461.08
6459.49
6458.25
6457.31
6456.74
6456.5
6456.62
6457.07
6457.87
6458.99
6460.46
6462.26
6464.39
6466.85
6469.63
6472.72
6476.13
6479.83
6483.83
6488.12
6492.69
6497.52
6502.61
6507.95
6513.52
6519.33
6525.34
6531.56
6537.97
6544.56
6551.31
6558.22
6565.28
6572.47
6579.78
6587.2
6594.71
6602.3
6609.97
6617.69
6625.48
6633.31
6641.17
6649.05
6656.94
6664.82
6672.7
6680.57
6688.42
6696.23
6704
6711.71
6719.37
6726.96
6734.5
6741.96
6749.34
6756.63
6763.84
6770.95
6777.98
6784.9
6791.71
6798.42
6805.03
6811.54
6817.94
6824.24
6830.42
6836.49
6842.46
6848.32
6854.08
6859.75
6865.31
6870.77
6876.13
6881.39
6886.57
6891.66
6896.67
6901.6
6906.44
6911.21
6915.9
6920.53
6925.1
6929.61
6934.06
6938.46
6942.81
6947.11
6951.38
6955.6
6959.79
6963.95
6968.08
6972.18
6976.25
6980.3
6984.34
6988.36
6992.36
6996.35
7000.33
7004.28
7008.23
7012.16
7016.08
7019.99
7023.89
7027.78
7031.65
7035.51
7039.36
7043.19
7047
7050.79
7054.56
7058.32
7062.05
7065.75
7069.44
7073.09
7076.71
7080.31
7083.87
7087.4
7090.9
7094.36
7097.78
7101.17
7104.52
7107.83
7111.1
7114.33
7117.52
7120.67
7123.79
7126.86
7129.88
7132.87
7135.8
7138.69
7141.52
7144.29
7146.99
7149.63
7152.19
7154.68
7157.07
7159.38
7161.59
7163.69
7165.69
7167.58
7169.36
7171.01
7172.54
7173.94
7175.21
7176.34
7177.33
7178.17
7178.88
7179.43
7179.83
7180.08
7180.18
7180.12
7179.91
7179.55
7179.03
7178.35
7177.53
7176.56
7175.44
7174.17
7172.76
7171.22
7169.54
7167.72
7165.78
7163.72
7161.54
7159.24
7156.85
7154.35
7151.76
7149.08
7146.31
7143.47
7140.56
7137.58
7134.55
7131.46
7128.33
7125.15
7121.95
7118.72
7115.46
7112.2
7108.92
7105.63
7102.35
7099.07
7095.8
7092.54
7089.3
7086.08
7082.89
7079.73
7076.6
7073.51
7070.45
7067.44
7064.47
7061.55
7058.67
7055.84
7053.06
7050.33
7047.65
7045.03
7042.45
7039.93
7037.46
7035.05
7032.69
7030.38
7028.12
7025.92
7023.76
7021.65
7019.6
7017.59
7015.63
7013.71
7011.84
7010.02
7008.23
7006.49
7004.78
7003.12
7001.49
6999.91
6998.36
6996.84
6995.37
6993.92
6992.51
6991.12
6989.77
6988.45
6987.15
6985.88
6984.64
6983.42
6982.24
6981.07
6979.94
6978.82
6977.74
6976.67
6975.64
6974.63
6973.65
6972.69
6971.77
6970.87
6970
6969.18
6968.41
6967.65
6966.9
6966.22
6965.56
6964.94
6964.35
6963.82
6963.28
6962.82
6962.36
6961.96
6961.57
6961.23
6960.93
6960.67
6960.44
6960.25
6960.08
6959.91
6959.81
6959.72
6959.7
6959.68
6959.72
6959.77
6959.87
6959.97
6960.12
6960.29
6960.49
6960.73
6960.99
6961.3
6961.51
6961.92
6962.07
6962.62
6962.93
6963.7
6964.11
6964.39
6964.81
6965.23
6965.69
6966.24
6966.72
6967.17
6967.65
6968.12
6968.61
6969.11
6969.61
6970.12
6970.63
6971.15
6971.68
6972.22
6972.77
6973.32
6973.88
6974.45
6975.02
6975.6
6976.19
6976.79
6977.39
6977.99
6978.6
6979.22
6979.83
6980.46
6981.08
6981.71
6982.34
6982.97
6983.61
6984.25
6984.88
6985.52
6986.16
6986.8
6987.44
6988.08
6988.72
6989.36
6990
6990.64
6991.28
6991.91
6992.54
6993.18
6993.81
6994.43
6995.06
6995.68
6996.3
6996.92
6997.53
6998.15
6998.75
6999.36
6999.96
7000.56
7001.15
7001.75
7002.33
7002.92
7003.49
7004.07
7004.64
7005.21
7005.77
7006.33
7006.88
7007.43
7007.98
7008.52
7009.05
7009.59
7010.11
7010.63
7011.15
7011.66
7012.17
7012.68
7013.17
7013.67
7014.16
7014.64
7015.12
7015.59
7016.21
6969.13
6968.59
6965.89
6963.71
6962.7
6963.04
6964.1
6965.07
6965.61
6965.93
6966.07
6966.01
6965.79
6965.39
6964.8
6964.12
6963.39
6962.63
6961.85
6961.02
6960.12
6959.16
6958.09
6956.91
6955.62
6954.2
6952.66
6951
6949.26
6947.4
6945.43
6943.35
6941.17
6938.89
6936.5
6934.01
6931.42
6928.72
6925.92
6923.03
6920.02
6916.91
6913.68
6910.34
6906.9
6903.35
6899.69
6895.93
6892.07
6888.16
6884.07
6879.88
6875.59
6871.21
6866.74
6862.17
6857.5
6852.75
6847.92
6843
6837.99
6832.9
6827.72
6822.47
6817.15
6811.73
6806.24
6800.67
6795.03
6789.33
6783.57
6777.75
6771.85
6765.88
6759.81
6753.66
6747.45
6741.18
6734.86
6728.5
6722.05
6715.52
6708.92
6702.28
6695.54
6688.67
6681.75
6674.86
6667.65
6659.41
6651.83
6644.36
6637.44
6632.83
6625.23
6611.39
6603.46
6594.11
6585.57
6576.72
6567.81
6557.85
6548.91
6539.35
6530.2
6520.73
6511.43
6501.99
6492.93
6484.08
6475.12
6465.88
6456.61
6447.71
6439.23
6431.03
6422.75
6414.3
6406.35
6398.5
6390.92
6383.17
6375.79
6368.38
6361.37
6354.29
6347.57
6340.8
6334.41
6327.9
6321.95
6316.02
6310.4
6305.13
6299.93
6295.12
6290.64
6286.3
6282.17
6278.32
6274.82
6271.59
6268.78
6266.16
6263.93
6261.99
6260.43
6259.16
6258.28
6257.7
6257.5
6257.61
6258.09
6258.89
6260.05
6261.53
6263.37
6265.54
6268.04
6270.86
6274
6277.45
6281.21
6285.27
6289.63
6294.27
6299.17
6304.33
6309.73
6315.38
6321.26
6327.35
6333.66
6340.14
6346.81
6353.64
6360.63
6367.76
6375.03
6382.42
6389.92
6397.5
6405.17
6412.91
6420.71
6428.56
6436.46
6444.4
6452.35
6460.3
6468.25
6476.18
6484.1
6492
6499.87
6507.69
6515.46
6523.16
6530.79
6538.36
6545.86
6553.27
6560.6
6567.84
6574.97
6582.01
6588.94
6595.76
6602.49
6609.11
6615.63
6622.04
6628.33
6634.51
6640.58
6646.55
6652.41
6658.16
6663.81
6669.36
6674.81
6680.16
6685.42
6690.59
6695.67
6700.66
6705.58
6710.41
6715.17
6719.86
6724.48
6729.03
6733.53
6737.97
6742.35
6746.69
6750.98
6755.23
6759.45
6763.62
6767.77
6771.89
6775.98
6780.04
6784.09
6788.11
6792.13
6796.12
6800.11
6804.08
6808.03
6811.98
6815.91
6819.84
6823.75
6827.66
6831.55
6835.44
6839.31
6843.16
6847
6850.83
6854.64
6858.43
6862.19
6865.94
6869.67
6873.37
6877.04
6880.69
6884.3
6887.89
6891.44
6894.96
6898.45
6901.9
6905.31
6908.68
6912.02
6915.32
6918.58
6921.8
6924.99
6928.13
6931.23
6934.28
6937.29
6940.26
6943.17
6946.03
6948.82
6951.55
6954.21
6956.8
6959.31
6961.74
6964.07
6966.31
6968.45
6970.48
6972.39
6974.19
6975.87
6977.43
6978.85
6980.14
6981.29
6982.3
6983.17
6983.88
6984.45
6984.86
6985.12
6985.22
6985.17
6984.96
6984.59
6984.06
6983.38
6982.55
6981.56
6980.43
6979.15
6977.72
6976.15
6974.45
6972.61
6970.64
6968.54
6966.33
6964.01
6961.57
6959.04
6956.41
6953.69
6950.89
6948.01
6945.06
6942.04
6938.97
6935.84
6932.67
6929.45
6926.21
6922.94
6919.64
6916.34
6913.02
6909.7
6906.39
6903.07
6899.77
6896.49
6893.22
6889.97
6886.76
6883.57
6880.42
6877.31
6874.23
6871.2
6868.22
6865.27
6862.38
6859.54
6856.75
6854.01
6851.32
6848.69
6846.11
6843.58
6841.11
6838.69
6836.32
6834.01
6831.75
6829.54
6827.38
6825.27
6823.21
6821.2
6819.24
6817.32
6815.45
6813.61
6811.83
6810.08
6808.37
6806.7
6805.08
6803.48
6801.93
6800.41
6798.93
6797.48
6796.06
6794.67
6793.31
6791.98
6790.67
6789.4
6788.15
6786.93
6785.72
6784.56
6783.4
6782.29
6781.19
6780.13
6779.08
6778.07
6777.08
6776.11
6775.18
6774.3
6773.43
6772.58
6771.79
6771.03
6770.3
6769.6
6768.95
6768.31
6767.72
6767.16
6766.64
6766.16
6765.7
6765.3
6764.92
6764.6
6764.29
6764.04
6763.75
6763.57
6763.38
6763.27
6763.15
6763.11
6763.06
6763.07
6763.09
6763.17
6763.24
6763.38
6763.52
6763.75
6763.95
6764.18
6764.43
6764.67
6764.99
6765.61
6766.01
6766.22
6766.61
6766.96
6767.43
6767.86
6768.37
6768.8
6769.26
6769.74
6770.21
6770.69
6771.18
6771.68
6772.18
6772.69
6773.2
6773.72
6774.25
6774.78
6775.32
6775.87
6776.43
6776.99
6777.56
6778.14
6778.72
6779.31
6779.91
6780.51
6781.11
6781.72
6782.34
6782.96
6783.58
6784.21
6784.84
6785.47
6786.11
6786.74
6787.38
6788.02
6788.67
6789.31
6789.95
6790.6
6791.24
6791.88
6792.53
6793.17
6793.81
6794.45
6795.09
6795.73
6796.36
6797
6797.63
6798.26
6798.89
6799.51
6800.13
6800.75
6801.37
6801.98
6802.59
6803.2
6803.8
6804.4
6805
6805.59
6806.18
6806.76
6807.34
6807.92
6808.49
6809.06
6809.62
6810.18
6810.74
6811.29
6811.83
6812.37
6812.91
6813.44
6813.97
6814.49
6815.01
6815.52
6816.03
6816.53
6817.03
6817.53
6818.01
6818.5
6818.98
6819.45
6820.07
6774.23
6773.34
6772.92
6772.5
6771.94
6771.47
6771.36
6771.29
6771.2
6771.13
6771.03
6770.83
6770.55
6770.16
6769.62
6768.99
6768.29
6767.55
6766.74
6765.88
6764.96
6763.95
6762.85
6761.66
6760.36
6758.95
6757.43
6755.81
6754.08
6752.24
6750.31
6748.25
6746.09
6743.83
6741.46
6739
6736.43
6733.75
6730.96
6728.08
6725.09
6721.98
6718.77
6715.44
6711.99
6708.43
6704.78
6701.02
6697.16
6693.19
6689.13
6684.94
6680.64
6676.25
6671.75
6667.16
6662.47
6657.69
6652.81
6647.85
6642.8
6637.65
6632.42
6627.12
6621.73
6616.25
6610.68
6605.02
6599.29
6593.48
6587.62
6581.69
6575.68
6569.59
6563.41
6557.13
6550.79
6544.37
6537.88
6531.32
6524.71
6518.04
6511.31
6504.49
6497.57
6490.56
6483.46
6476.23
6468.83
6461.31
6453.93
6446.28
6438.17
6430.76
6423.26
6416.19
6410.99
6402.85
6388.43
6380.36
6370.8
6361.9
6352.62
6343.53
6333.32
6324.35
6314.74
6305.58
6296.25
6286.97
6277.67
6268.57
6259.98
6251
6242.03
6232.88
6224.24
6216.06
6208.12
6200.23
6192.22
6184.78
6177.25
6170.09
6162.66
6155.79
6148.75
6142.27
6135.58
6129.4
6123.13
6117.17
6111.29
6105.7
6100.45
6095.27
6090.42
6086.29
6082.07
6078.63
6075.04
6071.84
6068.85
6066.32
6064.05
6062.26
6060.66
6059.43
6058.51
6057.98
6057.79
6057.98
6058.46
6059.3
6060.48
6062.02
6063.9
6066.13
6068.68
6071.56
6074.74
6078.26
6082.08
6086.22
6090.66
6095.37
6100.35
6105.59
6111.09
6116.82
6122.79
6128.99
6135.39
6141.97
6148.73
6155.65
6162.74
6169.97
6177.33
6184.82
6192.4
6200.08
6207.84
6215.67
6223.56
6231.5
6239.49
6247.5
6255.53
6263.57
6271.59
6279.6
6287.59
6295.55
6303.48
6311.36
6319.19
6326.95
6334.63
6342.25
6349.78
6357.24
6364.6
6371.87
6379.03
6386.09
6393.04
6399.88
6406.63
6413.26
6419.78
6426.19
6432.48
6438.66
6444.73
6450.7
6456.55
6462.3
6467.94
6473.48
6478.91
6484.26
6489.51
6494.66
6499.73
6504.71
6509.6
6514.42
6519.17
6523.85
6528.46
6533
6537.48
6541.9
6546.27
6550.59
6554.87
6559.11
6563.3
6567.46
6571.59
6575.69
6579.77
6583.83
6587.87
6591.88
6595.88
6599.87
6603.85
6607.82
6611.77
6615.72
6619.66
6623.59
6627.51
6631.42
6635.33
6639.22
6643.11
6646.98
6650.83
6654.67
6658.5
6662.31
6666.1
6669.87
6673.62
6677.34
6681.04
6684.71
6688.35
6691.97
6695.55
6699.1
6702.61
6706.1
6709.54
6712.95
6716.32
6719.66
6722.95
6726.21
6729.43
6732.6
6735.74
6738.83
6741.87
6744.87
6747.81
6750.7
6753.53
6756.29
6758.99
6761.61
6764.15
6766.61
6768.97
6771.25
6773.42
6775.48
6777.43
6779.26
6780.97
6782.55
6784
6785.32
6786.49
6787.53
6788.41
6789.14
6789.72
6790.15
6790.41
6790.52
6790.47
6790.26
6789.89
6789.36
6788.67
6787.83
6786.83
6785.67
6784.37
6782.92
6781.32
6779.59
6777.72
6775.71
6773.58
6771.33
6768.97
6766.49
6763.91
6761.24
6758.47
6755.62
6752.69
6749.69
6746.63
6743.51
6740.33
6737.11
6733.85
6730.55
6727.23
6723.89
6720.54
6717.18
6713.82
6710.46
6707.11
6703.77
6700.45
6697.15
6693.87
6690.63
6687.41
6684.23
6681.09
6678
6674.94
6671.94
6668.98
6666.07
6663.21
6660.41
6657.65
6654.95
6652.31
6649.72
6647.19
6644.71
6642.28
6639.91
6637.59
6635.33
6633.11
6630.95
6628.84
6626.77
6624.76
6622.79
6620.87
6618.99
6617.16
6615.37
6613.62
6611.91
6610.24
6608.61
6607.01