/*--------------------------------*- C++ -*----------------------------------*\
| =========                 |                                                 |
| \\      /  F ield         | OpenFOAM: The Open Source CFD Toolbox           |
|  \\    /   O peration     | Version:  v2006                                 |
|   \\  /    A nd           | Website:  www.openfoam.com                      |
|    \\/     M anipulation  |                                                 |
\*---------------------------------------------------------------------------*/
FoamFile
{
    version     2.0;
    format      ascii;
    class       volScalarField;
    location    "6.6";
    object      p_rgh;
}
// * * * * * * * * * * * * * * * * * * * * * * * * * * * * * * * * * * * * * //

dimensions      [1 -1 -2 0 0 0 0];


internalField   nonuniform List<scalar> 
33000
(
8049.76
8049.29
8049.29
8049.31
8048.76
8047.64
8046.74
8046.09
8045.53
8044.96
8044.39
8043.78
8043.06
8042.18
8041.13
8040.14
8039.4
8038.68
8038.57
8038.48
8038.33
8037.93
8036.72
8035.22
8033.59
8031.86
8030.05
8028.18
8026.22
8024.14
8021.98
8019.79
8017.54
8015.16
8012.68
8010.08
8007.41
8004.63
8001.74
7998.83
7995.81
7992.67
7989.42
7986.06
7982.58
7979.02
7975.4
7971.67
7967.82
7963.87
7959.81
7955.66
7951.41
7947.08
7942.65
7938.12
7933.52
7928.88
7924.19
7919.38
7914.49
7909.54
7904.52
7899.43
7894.28
7889.08
7883.84
7878.57
7873.27
7867.99
7862.69
7857.38
7852.06
7846.65
7841.3
7836.15
7831.32
7827.08
7822.46
7813.08
7807.56
7800.62
7793.52
7786.63
7779.27
7771.38
7763.92
7755.93
7748.36
7740.34
7732.64
7724.62
7716.65
7708.63
7700.62
7692.41
7684.33
7675.55
7667.69
7658.48
7648.21
7638.7
7628.87
7619.84
7610.47
7601.32
7592.21
7583.13
7574.1
7565.23
7556.52
7547.96
7539.49
7531.16
7523.03
7514.91
7507.34
7499.26
7490.72
7482.84
7474.98
7467.5
7460.13
7453.05
7446.17
7439.45
7432.93
7426.59
7420.43
7414.41
7408.6
7402.95
7397.5
7392.23
7387.2
7382.38
7377.81
7373.5
7369.45
7365.67
7362.19
7359.02
7356.17
7353.64
7351.4
7349.49
7347.9
7346.63
7345.7
7345.15
7344.9
7344.98
7345.39
7346.13
7347.21
7348.64
7350.39
7352.45
7354.83
7357.52
7360.52
7363.82
7367.42
7371.32
7375.48
7379.92
7384.61
7389.58
7394.78
7400.21
7405.86
7411.72
7417.78
7424.06
7430.5
7437.1
7443.84
7450.73
7457.76
7464.91
7472.19
7479.56
7487.01
7494.54
7502.12
7509.76
7517.44
7525.17
7532.92
7540.68
7548.45
7556.21
7563.95
7571.68
7579.39
7587.07
7594.7
7602.28
7609.79
7617.24
7624.61
7631.92
7639.16
7646.34
7653.41
7660.39
7667.28
7674.06
7680.75
7687.36
7693.85
7700.24
7706.52
7712.71
7718.82
7724.8
7730.68
7736.45
7742.11
7747.68
7753.16
7758.56
7763.85
7769.05
7774.15
7779.16
7784.1
7788.97
7793.77
7798.5
7803.15
7807.73
7812.25
7816.72
7821.15
7825.53
7829.86
7834.14
7838.39
7842.6
7846.78
7850.93
7855.05
7859.14
7863.22
7867.28
7871.31
7875.32
7879.31
7883.28
7887.25
7891.21
7895.14
7899.06
7902.95
7906.84
7910.71
7914.57
7918.42
7922.24
7926.05
7929.83
7933.59
7937.34
7941.06
7944.76
7948.43
7952.07
7955.68
7959.27
7962.83
7966.36
7969.84
7973.3
7976.71
7980.09
7983.43
7986.74
7990
7993.22
7996.4
7999.54
8002.64
8005.69
8008.71
8011.68
8014.62
8017.5
8020.34
8023.12
8025.83
8028.49
8031.07
8033.57
8035.99
8038.33
8040.57
8042.72
8044.77
8046.71
8048.54
8050.26
8051.86
8053.33
8054.69
8055.91
8057
8057.95
8058.76
8059.43
8059.95
8060.33
8060.57
8060.65
8060.59
8060.37
8060.01
8059.51
8058.85
8058.05
8057.1
8056
8054.77
8053.4
8051.89
8050.26
8048.49
8046.61
8044.6
8042.48
8040.26
8037.93
8035.49
8032.97
8030.36
8027.67
8024.9
8022.06
8019.16
8016.2
8013.19
8010.13
8007.04
8003.91
8000.75
7997.57
7994.37
7991.17
7987.95
7984.73
7981.51
7978.31
7975.11
7971.93
7968.77
7965.63
7962.53
7959.45
7956.4
7953.39
7950.42
7947.48
7944.59
7941.74
7938.94
7936.18
7933.48
7930.82
7928.21
7925.65
7923.14
7920.68
7918.28
7915.92
7913.62
7911.36
7909.16
7907
7904.9
7902.84
7900.83
7898.87
7896.96
7895.1
7893.28
7891.5
7889.77
7888.08
7886.43
7884.82
7883.24
7881.7
7880.2
7878.73
7877.29
7875.88
7874.51
7873.16
7871.85
7870.57
7869.32
7868.09
7866.9
7865.73
7864.58
7863.46
7862.37
7861.3
7860.25
7859.23
7858.23
7857.26
7856.32
7855.4
7854.52
7853.67
7852.85
7852.07
7851.32
7850.6
7849.92
7849.28
7848.68
7848.11
7847.58
7847.07
7846.61
7846.19
7845.78
7845.48
7845.13
7844.75
7844.48
7844.2
7843.99
7843.81
7843.67
7843.56
7843.48
7843.44
7843.44
7843.46
7843.52
7843.6
7843.71
7843.87
7844.03
7844.25
7844.47
7844.63
7844.9
7845.14
7845.46
7845.76
7846.13
7846.48
7846.89
7847.29
7847.73
7848.17
7848.64
7849.11
7849.62
7850.12
7850.59
7851.08
7851.61
7852.08
7852.86
7853.33
7853.6
7854.14
7854.54
7855
7855.49
7855.99
7856.51
7857.04
7857.59
7858.14
7858.71
7859.28
7859.86
7860.44
7861.03
7861.63
7862.23
7862.84
7863.45
7864.07
7864.69
7865.31
7865.93
7866.56
7867.19
7867.82
7868.45
7869.08
7869.72
7870.35
7870.98
7871.62
7872.25
7872.89
7873.52
7874.15
7874.78
7875.41
7876.04
7876.66
7877.28
7877.91
7878.53
7879.14
7879.76
7880.37
7880.98
7881.58
7882.18
7882.78
7883.38
7883.97
7884.56
7885.14
7885.72
7886.3
7886.87
7887.44
7888.01
7888.57
7889.13
7889.68
7890.23
7890.77
7891.31
7891.84
7892.38
7892.9
7893.42
7893.94
7894.45
7894.96
7895.46
7895.96
7896.45
7896.94
7897.42
7897.9
7898.37
7898.99
8049.48
8049.15
8049.44
8049.13
8049.12
8047.42
8046.17
8045.75
8045.31
8044.82
8044.33
8043.78
8043.05
8042.09
8040.81
8039.38
8038.25
8037.92
8037.76
8037.44
8037.49
8037.33
8036.36
8035.04
8033.55
8031.88
8030.11
8028.25
8026.19
8024.13
8022.04
8019.91
8017.67
8015.32
8012.89
8010.3
8007.55
8004.68
8001.83
7998.96
7996.05
7992.91
7989.64
7986.21
7982.72
7979.18
7975.63
7971.93
7968.07
7964.11
7960.06
7955.9
7951.61
7947.17
7942.7
7938.21
7933.63
7928.99
7924.35
7919.52
7914.53
7909.61
7904.66
7899.56
7894.39
7889.13
7883.78
7878.49
7873.18
7867.87
7862.61
7857.21
7851.71
7846.11
7840.46
7834.8
7829.13
7824
7818.76
7813.41
7809.24
7803.64
7793.34
7786.67
7778.5
7771.57
7763.9
7756.65
7749.04
7740.61
7732.85
7724.48
7716.54
7708.26
7700.15
7691.66
7683.23
7674.27
7665.25
7656.08
7647.05
7638.53
7629.8
7620.28
7610.82
7601.3
7592.07
7582.82
7574
7565.04
7556.34
7547.7
7539.17
7530.75
7522.46
7514.24
7506.25
7498.25
7490.34
7482.77
7474.98
7467.15
7459.8
7452.62
7445.79
7439.08
7432.54
7426.17
7419.94
7413.95
7408.13
7402.51
7397.02
7391.74
7386.7
7381.89
7377.32
7373
7368.91
7365.13
7361.65
7358.48
7355.61
7353.1
7350.87
7348.94
7347.31
7346.04
7345.14
7344.61
7344.36
7344.44
7344.84
7345.58
7346.67
7348.08
7349.86
7351.93
7354.32
7357.03
7360.02
7363.31
7366.93
7370.86
7375.04
7379.46
7384.15
7389.16
7394.39
7399.83
7405.46
7411.34
7417.44
7423.74
7430.2
7436.81
7443.56
7450.47
7457.5
7464.67
7471.94
7479.32
7486.83
7494.39
7501.99
7509.63
7517.3
7525.02
7532.8
7540.6
7548.38
7556.15
7563.89
7571.63
7579.34
7587.02
7594.68
7602.28
7609.8
7617.24
7624.62
7631.94
7639.19
7646.38
7653.46
7660.44
7667.31
7674.1
7680.8
7687.42
7693.92
7700.29
7706.56
7712.76
7718.87
7724.86
7730.74
7736.5
7742.15
7747.71
7753.19
7758.59
7763.89
7769.09
7774.19
7779.19
7784.12
7788.99
7793.78
7798.52
7803.18
7807.76
7812.26
7816.73
7821.15
7825.53
7829.87
7834.16
7838.4
7842.61
7846.78
7850.92
7855.03
7859.12
7863.2
7867.27
7871.3
7875.31
7879.29
7883.26
7887.23
7891.2
7895.13
7899.05
7902.94
7906.83
7910.7
7914.56
7918.41
7922.24
7926.05
7929.83
7933.6
7937.35
7941.08
7944.78
7948.45
7952.08
7955.7
7959.3
7962.87
7966.4
7969.89
7973.34
7976.76
7980.14
7983.48
7986.8
7990.07
7993.29
7996.48
7999.62
8002.72
8005.77
8008.79
8011.78
8014.72
8017.61
8020.45
8023.24
8025.96
8028.62
8031.2
8033.71
8036.14
8038.49
8040.74
8042.89
8044.94
8046.89
8048.73
8050.46
8052.06
8053.54
8054.9
8056.12
8057.21
8058.17
8058.98
8059.66
8060.19
8060.57
8060.8
8060.89
8060.83
8060.62
8060.25
8059.74
8059.09
8058.28
8057.33
8056.23
8055
8053.62
8052.11
8050.47
8048.7
8046.81
8044.8
8042.68
8040.44
8038.11
8035.67
8033.14
8030.52
8027.82
8025.04
8022.2
8019.29
8016.32
8013.3
8010.24
8007.14
8004
8000.84
7997.65
7994.45
7991.23
7988.01
7984.78
7981.56
7978.35
7975.15
7971.96
7968.79
7965.65
7962.54
7959.45
7956.4
7953.39
7950.41
7947.47
7944.58
7941.73
7938.92
7936.16
7933.45
7930.79
7928.18
7925.62
7923.11
7920.65
7918.24
7915.89
7913.58
7911.33
7909.12
7906.97
7904.86
7902.81
7900.8
7898.84
7896.93
7895.06
7893.24
7891.46
7889.73
7888.04
7886.39
7884.77
7883.2
7881.66
7880.15
7878.68
7877.24
7875.84
7874.46
7873.12
7871.8
7870.52
7869.27
7868.04
7866.84
7865.67
7864.53
7863.41
7862.31
7861.24
7860.19
7859.17
7858.17
7857.19
7856.25
7855.33
7854.45
7853.59
7852.78
7851.99
7851.24
7850.52
7849.85
7849.21
7848.59
7848.02
7847.49
7846.99
7846.58
7846.15
7845.68
7845.32
7844.95
7844.64
7844.35
7844.1
7843.9
7843.71
7843.58
7843.47
7843.41
7843.36
7843.36
7843.38
7843.46
7843.53
7843.69
7843.81
7843.94
7844.12
7844.33
7844.54
7844.81
7845.07
7845.39
7845.71
7846.06
7846.43
7846.82
7847.25
7847.67
7848.16
7848.61
7849.07
7849.56
7850.04
7850.57
7851.22
7851.86
7852.02
7852.67
7853.05
7853.5
7853.98
7854.45
7854.95
7855.45
7855.96
7856.49
7857.03
7857.57
7858.13
7858.7
7859.27
7859.85
7860.44
7861.03
7861.63
7862.23
7862.84
7863.45
7864.06
7864.68
7865.31
7865.93
7866.56
7867.19
7867.82
7868.45
7869.08
7869.72
7870.35
7870.98
7871.62
7872.25
7872.89
7873.52
7874.16
7874.79
7875.42
7876.04
7876.67
7877.29
7877.91
7878.53
7879.15
7879.76
7880.38
7880.98
7881.59
7882.19
7882.79
7883.39
7883.98
7884.57
7885.15
7885.73
7886.31
7886.88
7887.45
7888.02
7888.58
7889.14
7889.69
7890.24
7890.78
7891.32
7891.86
7892.39
7892.91
7893.43
7893.95
7894.46
7894.97
7895.47
7895.97
7896.46
7896.95
7897.44
7897.92
7898.38
7899
8049.02
8047.89
8046.87
8046.59
8045.74
8044.06
8044.31
8044.97
8045.11
8044.97
8044.7
8044.26
8043.57
8042.63
8041.39
8040.07
8038.99
8038.41
8038
8037.56
8037.26
8036.68
8035.72
8034.58
8033.33
8031.85
8030.15
8028.2
8026.16
8024.21
8022.16
8020.07
8018.01
8015.72
8013.29
8010.73
8008.02
8005.04
8002.12
7999.31
7996.5
7993.39
7990.11
7986.61
7983.09
7979.54
7975.99
7972.39
7968.55
7964.59
7960.53
7956.36
7951.96
7947.46
7943.03
7938.53
7934.09
7929.43
7924.5
7919.61
7914.69
7909.79
7904.95
7899.85
7894.66
7889.34
7883.9
7878.55
7873.17
7867.89
7862.51
7857
7851.41
7845.75
7840.02
7834.23
7828.39
7822.64
7816.76
7810.56
7805.19
7799.5
7793.63
7789.33
7782.55
7771.37
7764.5
7755.67
7748.48
7740.33
7732.94
7724.98
7716.27
7708.28
7699.74
7691.46
7682.85
7674.23
7665.32
7656.41
7647.12
7637.81
7628.3
7619.21
7610.24
7601.54
7592.41
7582.98
7573.58
7564.67
7555.79
7547.32
7538.66
7530.29
7521.83
7513.6
7505.49
7497.57
7489.52
7481.69
7473.87
7466.41
7459.2
7452.09
7445.02
7438.22
7431.6
7425.19
7419.04
7412.98
7407.2
7401.53
7396.09
7390.71
7385.64
7380.81
7376.28
7371.96
7367.86
7364.05
7360.54
7357.37
7354.52
7352.02
7349.75
7347.76
7346.15
7344.91
7344.07
7343.51
7343.24
7343.26
7343.67
7344.51
7345.65
7347.06
7348.75
7350.82
7353.24
7356.01
7359.03
7362.34
7365.97
7369.93
7374.14
7378.56
7383.29
7388.32
7393.6
7399.04
7404.71
7410.62
7416.73
7423.07
7429.59
7436.24
7443.03
7449.95
7456.98
7464.18
7471.49
7478.9
7486.45
7494.05
7501.68
7509.36
7517.05
7524.77
7532.55
7540.36
7548.23
7556.04
7563.83
7571.56
7579.26
7586.95
7594.63
7602.27
7609.81
7617.26
7624.65
7631.98
7639.28
7646.46
7653.54
7660.5
7667.4
7674.2
7680.94
7687.54
7694.03
7700.38
7706.66
7712.87
7718.99
7724.97
7730.84
7736.61
7742.24
7747.79
7753.27
7758.67
7763.98
7769.17
7774.27
7779.26
7784.18
7789.04
7793.85
7798.58
7803.22
7807.8
7812.3
7816.76
7821.19
7825.58
7829.91
7834.19
7838.42
7842.61
7846.75
7850.9
7855.02
7859.13
7863.22
7867.26
7871.29
7875.29
7879.26
7883.24
7887.2
7891.18
7895.11
7899.03
7902.92
7906.81
7910.7
7914.57
7918.42
7922.23
7926.02
7929.83
7933.62
7937.38
7941.11
7944.81
7948.48
7952.13
7955.75
7959.37
7962.94
7966.48
7969.98
7973.44
7976.87
7980.25
7983.6
7986.91
7990.2
7993.44
7996.63
7999.79
8002.89
8005.95
8008.99
8011.99
8014.94
8017.84
8020.69
8023.48
8026.21
8028.88
8031.48
8034.01
8036.45
8038.81
8041.07
8043.24
8045.3
8047.25
8049.11
8050.85
8052.47
8053.96
8055.32
8056.55
8057.65
8058.61
8059.44
8060.11
8060.65
8061.04
8061.28
8061.37
8061.31
8061.1
8060.74
8060.22
8059.56
8058.75
8057.8
8056.7
8055.45
8054.07
8052.55
8050.9
8049.12
8047.22
8045.2
8043.06
8040.82
8038.47
8036.02
8033.47
8030.84
8028.13
8025.34
8022.48
8019.55
8016.57
8013.54
8010.46
8007.34
8004.19
8001.01
7997.81
7994.6
7991.37
7988.13
7984.89
7981.66
7978.43
7975.22
7972.02
7968.84
7965.69
7962.56
7959.47
7956.4
7953.38
7950.39
7947.45
7944.55
7941.69
7938.88
7936.11
7933.4
7930.73
7928.12
7925.55
7923.04
7920.58
7918.17
7915.81
7913.51
7911.25
7909.05
7906.9
7904.79
7902.74
7900.73
7898.77
7896.86
7894.99
7893.17
7891.39
7889.65
7887.96
7886.3
7884.69
7883.11
7881.57
7880.06
7878.59
7877.15
7875.74
7874.37
7873.02
7871.71
7870.42
7869.16
7867.94
7866.73
7865.56
7864.41
7863.29
7862.18
7861.11
7860.06
7859.03
7858.03
7857.06
7856.11
7855.19
7854.3
7853.45
7852.62
7851.84
7851.09
7850.37
7849.69
7849.04
7848.44
7847.91
7847.37
7846.81
7846.35
7845.89
7845.49
7845.11
7844.77
7844.45
7844.18
7843.93
7843.73
7843.55
7843.41
7843.31
7843.23
7843.22
7843.21
7843.27
7843.31
7843.36
7843.46
7843.59
7843.75
7843.94
7844.16
7844.38
7844.66
7844.91
7845.26
7845.53
7845.96
7846.29
7846.77
7847.16
7847.59
7848.02
7848.48
7848.97
7849.73
7850.24
7850.51
7851
7851.37
7851.86
7852.4
7852.88
7853.35
7853.84
7854.34
7854.84
7855.35
7855.87
7856.4
7856.95
7857.5
7858.06
7858.63
7859.21
7859.8
7860.39
7860.98
7861.59
7862.19
7862.81
7863.42
7864.04
7864.66
7865.29
7865.91
7866.54
7867.17
7867.81
7868.44
7869.08
7869.71
7870.35
7870.98
7871.62
7872.25
7872.89
7873.52
7874.15
7874.79
7875.42
7876.05
7876.67
7877.3
7877.92
7878.54
7879.16
7879.77
7880.39
7881
7881.6
7882.21
7882.81
7883.4
7883.99
7884.58
7885.17
7885.75
7886.33
7886.9
7887.47
7888.04
7888.6
7889.16
7889.71
7890.26
7890.8
7891.34
7891.88
7892.41
7892.93
7893.46
7893.97
7894.48
7894.99
7895.49
7895.99
7896.49
7896.97
7897.46
7897.94
7898.4
7899.03
8046.22
8045.01
8042.23
8038.97
8035.27
8036.48
8040.19
8042.78
8043.91
8044.38
8044.52
8044.39
8043.95
8043.21
8042.26
8041.21
8040.3
8039.57
8038.92
8038.31
8037.69
8036.93
8035.8
8034.64
8033.43
8032.09
8030.45
8028.5
8026.42
8024.51
8022.48
8020.61
8018.6
8016.3
8013.87
8011.34
8008.69
8005.83
8002.79
8000.06
7997.19
7994.07
7990.82
7987.39
7983.72
7980.12
7976.62
7973.09
7969.25
7965.29
7961.22
7957.04
7952.69
7948.16
7943.69
7939.4
7934.82
7929.95
7924.89
7920.03
7915.09
7910.08
7905.31
7900.29
7895.07
7889.78
7884.37
7878.77
7873.22
7867.82
7862.45
7856.87
7851.18
7845.4
7839.53
7833.51
7827.36
7821.41
7815.43
7809.38
7803.38
7797.2
7790.79
7784.77
7777.77
7771.38
7765.08
7760.53
7753.49
7740.59
7733
7724.04
7716.44
7708.39
7700.31
7691.06
7682.63
7673.46
7664.68
7655.43
7646.47
7637.25
7628.48
7619.22
7609.96
7600.54
7591.19
7581.88
7573.17
7564.72
7555.71
7546.75
7537.92
7529.36
7521.01
7512.65
7504.55
7496.42
7488.55
7480.64
7472.95
7465.34
7458.13
7450.77
7443.76
7436.85
7430.15
7423.67
7417.4
7411.47
7405.7
7400.06
7394.51
7389.15
7384
7379.17
7374.6
7370.36
7366.3
7362.49
7358.9
7355.7
7352.9
7350.37
7348.08
7346.04
7344.46
7343.23
7342.44
7341.85
7341.51
7341.56
7342.01
7342.86
7344.05
7345.48
7347.17
7349.24
7351.66
7354.4
7357.47
7360.91
7364.62
7368.55
7372.71
7377.21
7381.99
7387.03
7392.39
7397.93
7403.59
7409.53
7415.69
7422.04
7428.62
7435.37
7442.22
7449.18
7456.22
7463.47
7470.83
7478.31
7485.93
7493.55
7501.22
7508.93
7516.63
7524.41
7532.23
7540.06
7547.95
7555.85
7563.67
7571.47
7579.18
7586.87
7594.55
7602.24
7609.83
7617.33
7624.72
7632.04
7639.36
7646.56
7653.63
7660.63
7667.54
7674.39
7681.1
7687.7
7694.16
7700.52
7706.81
7713.01
7719.15
7725.14
7731
7736.74
7742.36
7747.92
7753.39
7758.82
7764.1
7769.28
7774.38
7779.39
7784.3
7789.13
7793.9
7798.62
7803.29
7807.87
7812.37
7816.8
7821.22
7825.62
7829.95
7834.21
7838.41
7842.58
7846.75
7850.89
7855.05
7859.15
7863.21
7867.24
7871.23
7875.22
7879.22
7883.2
7887.2
7891.15
7895.07
7898.96
7902.88
7906.81
7910.69
7914.56
7918.4
7922.2
7926.02
7929.82
7933.64
7937.41
7941.15
7944.87
7948.55
7952.2
7955.83
7959.46
7963.05
7966.6
7970.1
7973.56
7977.01
7980.44
7983.8
7987.12
7990.4
7993.65
7996.87
8000.05
8003.16
8006.24
8009.29
8012.31
8015.28
8018.19
8021.04
8023.86
8026.62
8029.31
8031.92
8034.46
8036.91
8039.29
8041.58
8043.77
8045.85
8047.81
8049.68
8051.43
8053.08
8054.58
8055.95
8057.2
8058.32
8059.3
8060.13
8060.81
8061.36
8061.76
8062
8062.09
8062.03
8061.82
8061.46
8060.95
8060.28
8059.46
8058.5
8057.39
8056.14
8054.75
8053.22
8051.56
8049.76
8047.84
8045.8
8043.65
8041.38
8039.01
8036.54
8033.98
8031.32
8028.59
8025.78
8022.9
8019.95
8016.95
8013.89
8010.79
8007.65
8004.48
8001.27
7998.05
7994.82
7991.57
7988.31
7985.05
7981.8
7978.55
7975.32
7972.1
7968.91
7965.74
7962.59
7959.48
7956.41
7953.37
7950.37
7947.41
7944.5
7941.64
7938.82
7936.05
7933.32
7930.65
7928.03
7925.47
7922.95
7920.48
7918.07
7915.72
7913.41
7911.15
7908.95
7906.8
7904.69
7902.64
7900.63
7898.67
7896.76
7894.89
7893.06
7891.28
7889.54
7887.84
7886.18
7884.56
7882.98
7881.43
7879.92
7878.45
7877.01
7875.6
7874.22
7872.88
7871.56
7870.27
7869
7867.77
7866.57
7865.39
7864.23
7863.1
7862
7860.91
7859.86
7858.83
7857.82
7856.84
7855.89
7854.97
7854.08
7853.22
7852.39
7851.6
7850.84
7850.12
7849.47
7848.83
7848.18
7847.6
7847.05
7846.54
7846.06
7845.62
7845.2
7844.83
7844.48
7844.17
7843.9
7843.65
7843.46
7843.29
7843.18
7843.06
7843.03
7842.97
7842.95
7842.96
7843.02
7843.09
7843.22
7843.34
7843.53
7843.71
7843.94
7844.17
7844.45
7844.74
7845.1
7845.44
7845.77
7846.16
7846.53
7846.96
7847.38
7848.15
7848.63
7848.89
7849.35
7849.79
7850.26
7850.79
7851.28
7851.74
7852.23
7852.72
7853.21
7853.71
7854.21
7854.73
7855.25
7855.79
7856.33
7856.88
7857.44
7858.01
7858.59
7859.17
7859.75
7860.35
7860.95
7861.55
7862.16
7862.78
7863.39
7864.02
7864.64
7865.27
7865.9
7866.53
7867.16
7867.8
7868.43
7869.07
7869.71
7870.35
7870.98
7871.62
7872.26
7872.9
7873.53
7874.17
7874.8
7875.43
7876.06
7876.69
7877.31
7877.94
7878.56
7879.18
7879.79
7880.41
7881.02
7881.62
7882.23
7882.83
7883.43
7884.02
7884.61
7885.2
7885.78
7886.36
7886.93
7887.5
7888.07
7888.63
7889.19
7889.74
7890.29
7890.83
7891.37
7891.91
7892.44
7892.97
7893.49
7894.01
7894.52
7895.03
7895.53
7896.03
7896.52
7897.01
7897.49
7897.97
7898.44
7899.06
8045.71
8045.36
8042.01
8037.08
8033.15
8035.14
8039.04
8041.88
8043.31
8044.11
8044.52
8044.57
8044.31
8043.8
8043.09
8042.28
8041.47
8040.7
8039.95
8039.18
8038.38
8037.48
8036.32
8035.03
8033.89
8032.56
8030.99
8029.21
8026.99
8024.98
8023.21
8021.48
8019.35
8017.04
8014.64
8012.13
8009.51
8006.76
8003.9
8001.04
7998.06
7994.94
7991.71
7988.34
7984.75
7981.03
7977.57
7973.97
7970.13
7966.17
7962.1
7957.91
7953.6
7949.2
7944.77
7940.27
7935.63
7930.83
7925.71
7920.61
7915.64
7910.6
7905.92
7900.86
7895.59
7890.24
7884.82
7879.3
7873.64
7867.93
7862.33
7856.74
7851.02
7845.17
7839.19
7833
7826.65
7820.52
7814.34
7808.36
7802.39
7796.11
7789.69
7783.22
7776.48
7769.43
7762.44
7755.41
7748.86
7739.72
7736.25
7728.54
7715.89
7708.44
7699.51
7691.53
7682.91
7674.28
7664.55
7655.88
7646.45
7637.55
7627.97
7618.79
7609.38
7600.41
7591.44
7582.09
7573.07
7563.57
7554.45
7545.77
7537.28
7528.68
7519.87
7511.49
7503.26
7495.28
7487.19
7479.35
7471.43
7464.16
7456.75
7449.59
7442.27
7435.26
7428.3
7421.83
7415.53
7409.45
7403.55
7397.72
7392.41
7387.07
7381.97
7376.96
7372.3
7367.97
7363.98
7360.33
7356.75
7353.55
7350.64
7348.01
7345.61
7343.73
7342.15
7341.08
7340.19
7339.5
7339.18
7339.3
7339.76
7340.72
7341.87
7343.34
7345.09
7347.13
7349.58
7352.36
7355.5
7359.01
7362.72
7366.68
7370.87
7375.43
7380.26
7385.37
7390.82
7396.41
7402.14
7408.09
7414.31
7420.74
7427.43
7434.2
7441.1
7448.07
7455.2
7462.52
7469.97
7477.59
7485.2
7492.86
7500.59
7508.36
7516.12
7523.92
7531.8
7539.69
7547.62
7555.59
7563.46
7571.3
7579.1
7586.79
7594.48
7602.21
7609.85
7617.38
7624.84
7632.15
7639.41
7646.62
7653.74
7660.84
7667.79
7674.6
7681.31
7687.87
7694.32
7700.72
7707.02
7713.28
7719.38
7725.35
7731.18
7736.89
7742.54
7748.11
7753.63
7758.99
7764.23
7769.38
7774.47
7779.55
7784.48
7789.33
7794.04
7798.7
7803.33
7807.89
7812.4
7816.88
7821.34
7825.7
7830.01
7834.25
7838.42
7842.6
7846.76
7850.92
7855.06
7859.14
7863.17
7867.16
7871.18
7875.18
7879.17
7883.2
7887.18
7891.11
7895.01
7898.91
7902.82
7906.74
7910.67
7914.54
7918.36
7922.19
7926.02
7929.85
7933.68
7937.46
7941.21
7944.94
7948.65
7952.31
7955.94
7959.59
7963.2
7966.76
7970.26
7973.76
7977.23
7980.68
7984.07
7987.41
7990.69
7993.96
7997.19
8000.39
8003.56
8006.68
8009.75
8012.77
8015.73
8018.66
8021.55
8024.4
8027.18
8029.89
8032.52
8035.07
8037.55
8039.95
8042.27
8044.48
8046.59
8048.58
8050.46
8052.25
8053.9
8055.41
8056.81
8058.08
8059.23
8060.22
8061.06
8061.76
8062.32
8062.73
8062.98
8063.06
8063
8062.79
8062.44
8061.92
8061.25
8060.42
8059.44
8058.32
8057.07
8055.66
8054.12
8052.43
8050.61
8048.67
8046.61
8044.43
8042.14
8039.75
8037.24
8034.64
8031.96
8029.2
8026.37
8023.46
8020.48
8017.45
8014.36
8011.22
8008.04
8004.84
8001.61
7998.36
7995.1
7991.82
7988.53
7985.25
7981.96
7978.69
7975.44
7972.2
7968.98
7965.79
7962.63
7959.5
7956.41
7953.35
7950.34
7947.37
7944.44
7941.57
7938.74
7935.96
7933.23
7930.55
7927.92
7925.35
7922.83
7920.36
7917.94
7915.59
7913.28
7911.02
7908.81
7906.66
7904.55
7902.5
7900.49
7898.53
7896.61
7894.74
7892.91
7891.13
7889.38
7887.68
7886.01
7884.39
7882.8
7881.26
7879.74
7878.26
7876.82
7875.4
7874.02
7872.67
7871.35
7870.05
7868.78
7867.54
7866.32
7865.14
7863.97
7862.84
7861.72
7860.64
7859.57
7858.54
7857.53
7856.55
7855.59
7854.67
7853.77
7852.9
7852.08
7851.3
7850.55
7849.8
7849.12
7848.45
7847.84
7847.25
7846.71
7846.18
7845.72
7845.26
7844.86
7844.47
7844.13
7843.83
7843.57
7843.34
7843.15
7842.98
7842.81
7842.71
7842.62
7842.6
7842.58
7842.62
7842.67
7842.77
7842.87
7843.02
7843.19
7843.39
7843.63
7843.89
7844.2
7844.41
7844.81
7844.97
7845.52
7845.83
7846.6
7847.01
7847.29
7847.71
7848.12
7848.59
7849.14
7849.61
7850.06
7850.53
7851.02
7851.51
7852.01
7852.51
7853.02
7853.53
7854.05
7854.58
7855.12
7855.66
7856.21
7856.77
7857.34
7857.92
7858.5
7859.09
7859.68
7860.28
7860.89
7861.5
7862.12
7862.73
7863.36
7863.98
7864.61
7865.24
7865.87
7866.51
7867.14
7867.78
7868.42
7869.06
7869.7
7870.34
7870.98
7871.62
7872.26
7872.9
7873.54
7874.18
7874.81
7875.44
7876.08
7876.71
7877.33
7877.96
7878.58
7879.2
7879.82
7880.43
7881.05
7881.65
7882.26
7882.86
7883.46
7884.05
7884.65
7885.23
7885.82
7886.39
7886.97
7887.54
7888.11
7888.67
7889.23
7889.78
7890.33
7890.88
7891.42
7891.95
7892.49
7893.01
7893.53
7894.05
7894.56
7895.07
7895.58
7896.07
7896.57
7897.06
7897.54
7898.02
7898.49
7899.11
8048.23
8047.69
8044.99
8042.8
8041.77
8041.98
8042.85
8043.9
8044.64
8045.02
8045.17
8045.12
8044.9
8044.5
8043.92
8043.23
8042.49
8041.74
8040.95
8040.12
8039.22
8038.25
8037.13
8035.92
8034.67
8033.29
8031.75
8030.07
8028.11
8026.11
8024.36
8022.44
8020.27
8017.98
8015.59
8013.1
8010.51
8007.81
8005.02
8002.11
7999.1
7995.99
7992.77
7989.43
7985.97
7982.37
7978.64
7974.86
7971.04
7967.24
7963.17
7958.97
7954.68
7950.3
7945.83
7941.26
7936.6
7931.85
7926.95
7921.75
7916.38
7911.29
7906.64
7901.56
7896.24
7890.83
7885.33
7879.76
7874.13
7868.39
7862.42
7856.38
7850.61
7844.93
7838.9
7832.74
7826.36
7819.81
7813.55
7807.55
7801.14
7794.6
7787.93
7781.21
7774.55
7767.76
7760.85
7753.96
7746.75
7738.51
7730.93
7723.44
7716.39
7711.49
7703.93
7690.45
7682.54
7673.1
7664.48
7655.63
7646.84
7636.94
7628
7618.44
7609.22
7599.71
7590.47
7581.08
7572.01
7563.16
7554.18
7544.87
7535.51
7526.62
7518.15
7510.07
7501.85
7493.39
7485.42
7477.46
7469.87
7462.25
7454.88
7447.47
7440.44
7433.24
7426.39
7419.6
7413.34
7406.9
7400.92
7395.01
7389.46
7384.23
7379.01
7374.12
7369.51
7365.16
7361.17
7357.41
7353.9
7350.68
7347.83
7345.05
7342.72
7340.78
7339.42
7338.24
7337.35
7336.72
7336.36
7336.44
7337.04
7337.97
7339.13
7340.62
7342.46
7344.55
7346.94
7349.77
7353.05
7356.54
7360.29
7364.36
7368.65
7373.18
7378.08
7383.38
7388.81
7394.46
7400.33
7406.32
7412.57
7419.18
7425.9
7432.73
7439.69
7446.72
7453.93
7461.37
7469
7476.6
7484.26
7491.99
7499.74
7507.56
7515.48
7523.45
7531.31
7539.22
7547.24
7555.24
7563.16
7571.06
7578.95
7586.78
7594.51
7602.16
7609.78
7617.43
7624.93
7632.28
7639.56
7646.79
7653.98
7661.09
7668.03
7674.84
7681.49
7688.06
7694.58
7701.02
7707.41
7713.59
7719.66
7725.59
7731.38
7737.14
7742.81
7748.43
7753.88
7759.22
7764.41
7769.58
7774.67
7779.74
7784.66
7789.5
7794.26
7798.89
7803.46
7808.01
7812.51
7816.99
7821.44
7825.78
7830.08
7834.32
7838.47
7842.61
7846.81
7850.97
7855.07
7859.09
7863.09
7867.12
7871.13
7875.15
7879.19
7883.17
7887.13
7891.04
7894.93
7898.85
7902.77
7906.72
7910.65
7914.52
7918.34
7922.19
7926.05
7929.92
7933.73
7937.52
7941.26
7944.99
7948.74
7952.46
7956.13
7959.78
7963.4
7966.95
7970.49
7974.02
7977.53
7980.99
7984.41
7987.78
7991.1
7994.37
7997.63
8000.87
8004.08
8007.23
8010.32
8013.37
8016.35
8019.31
8022.25
8025.12
8027.92
8030.64
8033.29
8035.87
8038.4
8040.84
8043.17
8045.41
8047.54
8049.56
8051.47
8053.29
8054.97
8056.52
8057.92
8059.23
8060.39
8061.4
8062.25
8062.96
8063.54
8063.96
8064.21
8064.31
8064.24
8064.04
8063.69
8063.16
8062.47
8061.64
8060.66
8059.52
8058.24
8056.81
8055.25
8053.54
8051.71
8049.73
8047.63
8045.42
8043.1
8040.67
8038.13
8035.5
8032.79
8029.98
8027.1
8024.15
8021.14
8018.06
8014.93
8011.76
8008.55
8005.3
8002.03
7998.74
7995.44
7992.12
7988.8
7985.49
7982.17
7978.87
7975.58
7972.32
7969.07
7965.86
7962.67
7959.52
7956.4
7953.33
7950.3
7947.31
7944.37
7941.48
7938.64
7935.85
7933.11
7930.42
7927.79
7925.21
7922.68
7920.2
7917.78
7915.42
7913.11
7910.85
7908.64
7906.48
7904.37
7902.31
7900.3
7898.33
7896.41
7894.54
7892.71
7890.92
7889.18
7887.47
7885.8
7884.17
7882.58
7881.03
7879.51
7878.02
7876.57
7875.16
7873.77
7872.41
7871.08
7869.77
7868.5
7867.24
7866.02
7864.82
7863.66
7862.5
7861.39
7860.29
7859.23
7858.18
7857.17
7856.18
7855.21
7854.28
7853.4
7852.53
7851.68
7850.89
7850.13
7849.4
7848.7
7848.05
7847.41
7846.82
7846.26
7845.74
7845.26
7844.8
7844.4
7844.02
7843.7
7843.39
7843.14
7842.85
7842.67
7842.48
7842.37
7842.25
7842.21
7842.16
7842.17
7842.19
7842.26
7842.34
7842.48
7842.62
7842.85
7843.05
7843.28
7843.53
7843.77
7844.09
7844.71
7845.1
7845.32
7845.71
7846.06
7846.53
7846.95
7847.47
7847.9
7848.36
7848.84
7849.31
7849.79
7850.28
7850.78
7851.28
7851.79
7852.3
7852.82
7853.35
7853.88
7854.42
7854.97
7855.53
7856.09
7856.66
7857.24
7857.82
7858.41
7859
7859.61
7860.21
7860.82
7861.44
7862.06
7862.68
7863.31
7863.94
7864.57
7865.21
7865.84
7866.48
7867.12
7867.77
7868.41
7869.05
7869.7
7870.34
7870.98
7871.63
7872.27
7872.91
7873.55
7874.19
7874.83
7875.46
7876.1
7876.73
7877.36
7877.99
7878.61
7879.23
7879.85
7880.47
7881.08
7881.69
7882.3
7882.9
7883.5
7884.1
7884.69
7885.28
7885.86
7886.44
7887.02
7887.59
7888.16
7888.72
7889.28
7889.84
7890.39
7890.93
7891.47
7892.01
7892.54
7893.07
7893.59
7894.11
7894.62
7895.13
7895.63
7896.13
7896.63
7897.12
7897.6
7898.08
7898.55
7899.17
8049.53
8048.64
8048.22
8047.74
8046.87
8045.44
8045.36
8046.04
8046.41
8046.43
8046.34
8046.14
8045.86
8045.48
8044.93
8044.3
8043.6
8042.85
8042.05
8041.19
8040.26
8039.25
8038.14
8036.95
8035.66
8034.25
8032.73
8031.1
8029.33
8027.49
8025.59
8023.55
8021.38
8019.09
8016.67
8014.21
8011.71
8009.05
8006.26
8003.35
8000.27
7997.12
7993.98
7990.72
7987.27
7983.65
7979.63
7975.18
7971.74
7968.41
7964.42
7960.23
7955.94
7951.54
7947.05
7942.46
7937.77
7932.98
7928.11
7923.11
7917.91
7912.58
7907.15
7901.96
7896.94
7891.54
7885.98
7880.32
7874.58
7868.69
7862.51
7856.43
7850.43
7844.71
7838.69
7832.43
7826.04
7819.57
7813.08
7806.59
7799.99
7793.17
7786.12
7779.19
7772.72
7765.85
7758.75
7751.53
7744.13
7736.59
7729.13
7721.29
7712.86
7705.36
7697.87
7691.28
7686.26
7678.12
7663.56
7655.43
7645.91
7637.17
7627.91
7618.82
7608.59
7599.57
7589.96
7580.85
7571.54
7562.18
7552.74
7543.63
7535.04
7526.12
7517.29
7508.16
7499.53
7491.33
7483.39
7475.47
7467.4
7459.94
7452.53
7445.38
7437.95
7431.06
7423.91
7417.21
7410.5
7404.35
7398.33
7392.46
7386.58
7381
7375.75
7370.53
7365.57
7361.36
7357.32
7353.92
7350.32
7347.12
7344.11
7341.4
7338.99
7337.32
7335.92
7334.7
7333.78
7333.25
7332.94
7333.07
7333.72
7334.58
7335.74
7337.21
7339.07
7341.4
7343.95
7346.8
7349.98
7353.53
7357.35
7361.48
7365.91
7370.63
7375.62
7380.88
7386.36
7392.07
7397.95
7404.16
7410.67
7417.26
7424.02
7430.91
7437.86
7445.04
7452.46
7460.09
7467.69
7475.37
7483.13
7490.88
7498.64
7506.57
7514.64
7522.78
7530.81
7538.84
7546.74
7554.68
7562.67
7570.73
7578.76
7586.64
7594.46
7602.12
7609.74
7617.35
7624.89
7632.34
7639.83
7647.13
7654.31
7661.37
7668.31
7675.05
7681.75
7688.39
7694.93
7701.45
7707.76
7713.94
7720.01
7725.97
7731.77
7737.46
7743.1
7748.67
7754.17
7759.51
7764.74
7769.85
7774.99
7779.97
7784.85
7789.66
7794.42
7799.11
7803.72
7808.18
7812.64
7817.08
7821.53
7825.88
7830.16
7834.38
7838.51
7842.63
7846.85
7850.98
7855.06
7859.11
7863.08
7867.07
7871.07
7875.14
7879.14
7883.11
7887.06
7890.96
7894.86
7898.79
7902.75
7906.71
7910.62
7914.51
7918.36
7922.19
7926.09
7929.96
7933.79
7937.6
7941.34
7945.09
7948.88
7952.63
7956.34
7960.01
7963.65
7967.22
7970.79
7974.36
7977.91
7981.39
7984.84
7988.24
7991.61
7994.92
7998.21
8001.49
8004.72
8007.9
8011.03
8014.12
8017.13
8020.14
8023.11
8026
8028.83
8031.58
8034.25
8036.89
8039.45
8041.91
8044.27
8046.54
8048.7
8050.77
8052.72
8054.56
8056.27
8057.85
8059.29
8060.61
8061.79
8062.82
8063.7
8064.43
8065.02
8065.44
8065.71
8065.81
8065.76
8065.56
8065.19
8064.66
8063.97
8063.13
8062.13
8060.97
8059.66
8058.21
8056.62
8054.89
8053.01
8051.01
8048.88
8046.63
8044.26
8041.78
8039.21
8036.53
8033.77
8030.92
8027.99
8024.98
8021.92
8018.8
8015.62
8012.4
8009.14
8005.85
8002.53
7999.19
7995.84
7992.48
7989.12
7985.76
7982.41
7979.07
7975.75
7972.45
7969.17
7965.93
7962.71
7959.53
7956.39
7953.3
7950.24
7947.23
7944.28
7941.37
7938.51
7935.71
7932.95
7930.25
7927.61
7925.02
7922.48
7920
7917.58
7915.21
7912.89
7910.62
7908.41
7906.25
7904.13
7902.07
7900.05
7898.08
7896.16
7894.29
7892.46
7890.67
7888.92
7887.21
7885.54
7883.9
7882.31