/*--------------------------------*- C++ -*----------------------------------*\
| =========                 |                                                 |
| \\      /  F ield         | OpenFOAM: The Open Source CFD Toolbox           |
|  \\    /   O peration     | Version:  v2006                                 |
|   \\  /    A nd           | Website:  www.openfoam.com                      |
|    \\/     M anipulation  |                                                 |
\*---------------------------------------------------------------------------*/
FoamFile
{
    version     2.0;
    format      ascii;
    class       surfaceScalarField;
    location    "6.6";
    object      phi;
}
// * * * * * * * * * * * * * * * * * * * * * * * * * * * * * * * * * * * * * //

dimensions      [0 3 -1 0 0 0 0];
oriented        oriented;


internalField   nonuniform List<scalar> 
65390
(
4.31824e-05
3.14856e-07
4.44822e-05
-1.29966e-06
5.0079e-05
-5.59662e-06
5.67432e-05
-6.66407e-06
6.1443e-05
-4.6997e-06
6.40488e-05
-2.60577e-06
6.60758e-05
-2.02688e-06
6.79836e-05
-1.90777e-06
6.98624e-05
-1.87873e-06
7.1316e-05
-1.45358e-06
7.28831e-05
-1.56711e-06
7.47811e-05
-1.89793e-06
7.68975e-05
-2.11643e-06
7.92735e-05
-2.37599e-06
8.16443e-05
-2.37074e-06
8.32214e-05
-1.57704e-06
8.25703e-05
6.51066e-07
7.95506e-05
3.01974e-06
7.57115e-05
3.83914e-06
6.98518e-05
5.85967e-06
6.06259e-05
9.22591e-06
5.13766e-05
9.24931e-06
4.5142e-05
6.23457e-06
4.06953e-05
4.44662e-06
3.76419e-05
3.05342e-06
3.55976e-05
2.04432e-06
3.3611e-05
1.98653e-06
3.14092e-05
2.20176e-06
2.89558e-05
2.45333e-06
2.64761e-05
2.47974e-06
2.43689e-05
2.10712e-06
2.24819e-05
1.88695e-06
2.06437e-05
1.83812e-06
1.92288e-05
1.41487e-06
1.85411e-05
6.87629e-07
1.8029e-05
5.12009e-07
1.69908e-05
1.03817e-06
1.50947e-05
1.89601e-06
1.27843e-05
2.31035e-06
1.10917e-05
1.69253e-06
1.04262e-05
6.6546e-07
1.00242e-05
4.01835e-07
9.36472e-06
6.59447e-07
8.22816e-06
1.13648e-06
6.57953e-06
1.64855e-06
4.86056e-06
1.71889e-06
3.702e-06
1.15847e-06
3.15519e-06
5.46731e-07
2.74979e-06
4.05317e-07
2.30168e-06
4.48019e-07
1.8575e-06
4.44105e-07
1.43783e-06
4.19581e-07
9.80402e-07
4.57341e-07
1.24547e-07
8.5577e-07
-1.23717e-06
1.36163e-06
-2.8733e-06
1.63605e-06
-4.43766e-06
1.56428e-06
-5.65182e-06
1.21408e-06
-6.54449e-06
8.92599e-07
-7.48723e-06
9.42675e-07
-8.67866e-06
1.19137e-06
-9.72944e-06
1.05071e-06
-1.00697e-05
3.40195e-07
-9.67384e-06
-3.959e-07
-8.95768e-06
-7.16213e-07
-8.20196e-06
-7.55756e-07
-7.56918e-06
-6.32829e-07
-6.9301e-06
-6.39114e-07
-6.09618e-06
-8.33963e-07
-4.83651e-06
-1.25971e-06
-2.95575e-06
-1.8808e-06
-2.47536e-07
-2.70825e-06
3.06956e-06
-3.31713e-06
6.53288e-06
-3.46336e-06
9.6932e-06
-3.16035e-06
1.17662e-05
-2.07306e-06
1.19565e-05
-1.90227e-07
8.29382e-06
3.66262e-06
4.8416e-06
3.45221e-06
3.03048e-06
1.81113e-06
9.90376e-08
2.93144e-06
-1.42741e-06
1.52645e-06
-2.96014e-06
1.53273e-06
-3.47961e-06
5.19482e-07
-3.91031e-06
4.30716e-07
-4.30209e-06
3.91803e-07
-4.52628e-06
2.24211e-07
-4.67337e-06
1.47126e-07
-4.68608e-06
1.27396e-08
-4.60066e-06
-8.53864e-08
-4.22332e-06
-3.77302e-07
-3.60471e-06
-6.18584e-07
-2.6991e-06
-9.0558e-07
-1.41156e-06
-1.2875e-06
4.93108e-07
-1.90464e-06
2.82147e-06
-2.32833e-06
5.58345e-06
-2.76195e-06
8.41632e-06
-2.83284e-06
1.07009e-05
-2.2845e-06
1.16975e-05
-9.96643e-07
1.16735e-05
2.40885e-08
1.12384e-05
4.3516e-07
1.05069e-05
7.31461e-07
9.92602e-06
5.80952e-07
9.1972e-06
7.28857e-07
8.67879e-06
5.18439e-07
8.42756e-06
2.51255e-07
8.09423e-06
3.33362e-07
7.64305e-06
4.512e-07
7.17701e-06
4.66056e-07
6.73058e-06
4.46436e-07
6.31342e-06
4.17162e-07
6.02511e-06
2.88312e-07
5.8732e-06
1.51899e-07
5.93508e-06
-6.18925e-08
6.12726e-06
-1.92199e-07
6.44417e-06
-3.16932e-07
6.47202e-06
-2.78716e-08
6.10284e-06
3.69166e-07
5.61802e-06
4.84801e-07
5.03394e-06
5.84062e-07
4.48209e-06
5.51831e-07
3.79942e-06
6.82669e-07
3.18149e-06
6.1792e-07
2.65476e-06
5.26727e-07
2.11244e-06
5.42314e-07
1.58219e-06
5.30258e-07
1.04507e-06
5.37126e-07
4.79949e-07
5.65122e-07
-6.45861e-08
5.4454e-07
-5.82085e-07
5.17504e-07
-1.08169e-06
4.99612e-07
-1.56269e-06
4.81003e-07
-2.05079e-06
4.88106e-07
-2.53205e-06
4.81259e-07
-3.00874e-06
4.76682e-07
-3.47412e-06
4.65377e-07
-3.92498e-06
4.50854e-07
-4.37445e-06
4.49464e-07
-4.81804e-06
4.43579e-07
-5.25535e-06
4.37299e-07
-5.68029e-06
4.24935e-07
-6.09154e-06
4.11239e-07
-6.48378e-06
3.92232e-07
-6.86365e-06
3.79863e-07
-7.23691e-06
3.73262e-07
-7.6056e-06
3.68697e-07
-7.96872e-06
3.63125e-07
-8.31938e-06
3.5068e-07
-8.6476e-06
3.28236e-07
-8.9635e-06
3.15915e-07
-9.27364e-06
3.10149e-07
-9.57763e-06
3.04005e-07
-9.87317e-06
2.95552e-07
-1.01559e-05
2.82769e-07
-1.04276e-05
2.71663e-07
-1.0688e-05
2.60395e-07
-1.09381e-05
2.50105e-07
-1.11785e-05
2.40354e-07
-1.14076e-05
2.29152e-07
-1.16276e-05
2.19967e-07
-1.18411e-05
2.13447e-07
-1.20437e-05
2.02584e-07
-1.22306e-05
1.8684e-07
-1.24067e-05
1.76065e-07
-1.25771e-05
1.70368e-07
-1.27406e-05
1.63477e-07
-1.28894e-05
1.48822e-07
-1.30226e-05
1.33204e-07
-1.31463e-05
1.23691e-07
-1.32644e-05
1.18089e-07
-1.33753e-05
1.10815e-07
-1.34752e-05
9.98842e-08
-1.35593e-05
8.41362e-08
-1.36309e-05
7.16148e-08
-1.36932e-05
6.22317e-08
-1.37491e-05
5.59787e-08
-1.37974e-05
4.82087e-08
-1.38367e-05
3.93356e-08
-1.38672e-05
3.04685e-08
-1.38891e-05
2.19433e-08
-1.39015e-05
1.24034e-08
-1.39013e-05
-2.1482e-10
-1.38891e-05
-1.22492e-08
-1.38696e-05
-1.95004e-08
-1.38445e-05
-2.50803e-08
-1.38152e-05
-2.93113e-08
-1.37799e-05
-3.53412e-08
-1.37348e-05
-4.514e-08
-1.36797e-05
-5.51503e-08
-1.36158e-05
-6.39004e-08
-1.35453e-05
-7.05468e-08
-1.34709e-05
-7.43919e-08
-1.33916e-05
-7.93286e-08
-1.33064e-05
-8.52309e-08
-1.32139e-05
-9.2472e-08
-1.31126e-05
-1.01355e-07
-1.30024e-05
-1.10197e-07
-1.28858e-05
-1.16608e-07
-1.27671e-05
-1.18668e-07
-1.26481e-05
-1.19082e-07
-1.25253e-05
-1.22779e-07
-1.23956e-05
-1.2966e-07
-1.22559e-05
-1.39703e-07
-1.21088e-05
-1.47186e-07
-1.19584e-05
-1.50371e-07
-1.18066e-05
-1.51872e-07
-1.16523e-05
-1.54271e-07
-1.1493e-05
-1.59383e-07
-1.13246e-05
-1.68425e-07
-1.11507e-05
-1.73972e-07
-1.09771e-05
-1.73616e-07
-1.08075e-05
-1.69734e-07
-1.06343e-05
-1.73215e-07
-1.04473e-05
-1.87088e-07
-1.02524e-05
-1.9497e-07
-1.0055e-05
-1.97419e-07
-9.85849e-06
-1.96591e-07
-9.66926e-06
-1.89266e-07
-9.48345e-06
-1.85836e-07
-9.29336e-06
-1.90115e-07
-9.09516e-06
-1.98234e-07
-8.8916e-06
-2.03588e-07
-8.68904e-06
-2.02591e-07
-8.49239e-06
-1.96684e-07
-8.30762e-06
-1.84805e-07
-8.12863e-06
-1.79012e-07
-7.95033e-06
-1.78331e-07
-7.77207e-06
-1.78275e-07
-7.59248e-06
-1.79595e-07
-7.41625e-06
-1.76221e-07
-7.24977e-06
-1.66477e-07
-7.09788e-06
-1.51878e-07
-6.95266e-06
-1.45211e-07
-6.80808e-06
-1.44571e-07
-6.66678e-06
-1.41303e-07
-6.52844e-06
-1.38349e-07
-6.39405e-06
-1.34396e-07
-6.2666e-06
-1.27461e-07
-6.14588e-06
-1.20737e-07
-6.03047e-06
-1.15415e-07
-5.9219e-06
-1.08586e-07
-5.82066e-06
-1.0125e-07
-5.72379e-06
-9.68644e-08
-5.62676e-06
-9.70296e-08
-5.52767e-06
-9.90839e-08
-5.42882e-06
-9.8833e-08
-5.33395e-06
-9.48462e-08
-5.24912e-06
-8.48051e-08
-5.16885e-06
-8.02368e-08
-5.0823e-06
-8.65126e-08
-4.99053e-06
-9.17267e-08
-4.89867e-06
-9.18204e-08
-4.80744e-06
-9.11967e-08
-4.71875e-06
-8.86602e-08
-4.63139e-06
-8.73354e-08
-4.53989e-06
-9.14853e-08
-4.44386e-06
-9.60153e-08
-4.34431e-06
-9.95471e-08
-4.24075e-06
-1.0356e-07
-4.13532e-06
-1.05444e-07
-4.02785e-06
-1.0748e-07
-3.91566e-06
-1.122e-07
-3.79723e-06
-1.18456e-07
-3.67123e-06
-1.26024e-07
-3.53992e-06
-1.31331e-07
-3.40719e-06
-1.32758e-07
-3.27408e-06
-1.33135e-07
-3.13603e-06
-1.38069e-07
-2.98827e-06
-1.47788e-07
-2.83139e-06
-1.56904e-07
-2.66867e-06
-1.62731e-07
-2.50055e-06
-1.68143e-07
-2.32809e-06
-1.72468e-07
-2.15369e-06
-1.74407e-07
-1.97499e-06
-1.78692e-07
-1.78968e-06
-1.85305e-07
-1.59778e-06
-1.91894e-07
-1.39979e-06
-1.97982e-07
-1.19655e-06
-2.03233e-07
-9.88431e-07
-2.08113e-07
-7.75797e-07
-2.12628e-07
-5.61081e-07
-2.1471e-07
-3.45956e-07
-2.15119e-07
-1.26746e-07
-2.19204e-07
9.7771e-08
-2.24512e-07
3.25314e-07
-2.2754e-07
5.54899e-07
-2.29583e-07
7.86371e-07
-2.31469e-07
1.01927e-06
-2.32891e-07
1.25248e-06
-2.33199e-07
1.48665e-06
-2.34149e-07
1.72251e-06
-2.3583e-07
1.95986e-06
-2.37321e-07
2.19816e-06
-2.38256e-07
2.43675e-06
-2.38558e-07
2.67462e-06
-2.37839e-07
2.91145e-06
-2.36807e-07
3.14771e-06
-2.36242e-07
3.38333e-06
-2.35612e-07
3.61845e-06
-2.35122e-07
3.85244e-06
-2.34009e-07
4.08391e-06
-2.31494e-07
4.31287e-06
-2.28998e-07
4.53981e-06
-2.26979e-07
4.76442e-06
-2.24643e-07
4.98621e-06
-2.21811e-07
5.2045e-06
-2.18298e-07
5.41912e-06
-2.14611e-07
5.63017e-06
-2.11038e-07
5.83763e-06
-2.0744e-07
6.04075e-06
-2.03123e-07
6.23858e-06
-1.97836e-07
6.43106e-06
-1.9249e-07
6.61866e-06
-1.87628e-07
6.80131e-06
-1.8267e-07
6.97833e-06
-1.7704e-07
7.14925e-06
-1.70924e-07
7.31394e-06
-1.64688e-07
7.47235e-06
-1.58394e-07
7.62436e-06
-1.51997e-07
7.76966e-06
-1.45296e-07
7.90786e-06
-1.38187e-07
8.03888e-06
-1.3102e-07
8.16291e-06
-1.24024e-07
8.27976e-06
-1.16853e-07
8.38899e-06
-1.09242e-07
8.49034e-06
-1.01351e-07
8.58407e-06
-9.37347e-08
8.67034e-06
-8.62783e-08
8.74913e-06
-7.8795e-08
8.82003e-06
-7.09176e-08
8.88252e-06
-6.24986e-08
8.93678e-06
-5.42764e-08
8.98339e-06
-4.66283e-08
9.02261e-06
-3.92421e-08
9.0543e-06
-3.17122e-08
9.0783e-06
-2.4027e-08
9.09451e-06
-1.62497e-08
9.10294e-06
-8.47103e-09
9.10393e-06
-1.02663e-09
9.09775e-06
6.13463e-09
9.08453e-06
1.3163e-08
9.06422e-06
2.02655e-08
9.03667e-06
2.74993e-08
9.00215e-06
3.44719e-08
8.96115e-06
4.09692e-08
8.91393e-06
4.71768e-08
8.86055e-06
5.33496e-08
8.80081e-06
5.97095e-08
8.73465e-06
6.61216e-08
8.66262e-06
7.19793e-08
8.58534e-06
7.72289e-08
8.50261e-06
8.26624e-08
8.41424e-06
8.83046e-08
8.32067e-06
9.34931e-08
8.22219e-06
9.84076e-08
8.11891e-06
1.03214e-07
8.011e-06
1.07857e-07
7.89864e-06
1.12312e-07
7.78197e-06
1.1663e-07
7.66114e-06
1.208e-07
7.53634e-06
1.24788e-07
7.40758e-06
1.28752e-07
7.27487e-06
1.32698e-07
7.13841e-06
1.3646e-07
6.99856e-06
1.3984e-07
6.85559e-06
1.42963e-07
6.70958e-06
1.4601e-07
6.56039e-06
1.49193e-07
6.40804e-06
1.52356e-07
6.2529e-06
1.55163e-07
6.09539e-06
1.5753e-07
5.93569e-06
1.59724e-07
5.77358e-06
1.62145e-07
5.60918e-06
1.6444e-07
5.44268e-06
1.66548e-07
5.2742e-06
1.68515e-07
5.10361e-06
1.70619e-07
4.93102e-06
1.72613e-07
4.75702e-06
1.74016e-07
4.58212e-06
1.74893e-07
4.40629e-06
1.75809e-07
4.22937e-06
1.76886e-07
4.05142e-06
1.77899e-07
3.87263e-06
1.7875e-07
3.693e-06
1.79597e-07
3.51318e-06
1.79802e-07
3.33351e-06
1.79664e-07
3.15385e-06
1.79661e-07
2.97395e-06
1.79932e-07
2.79428e-06
1.79709e-07
2.61557e-06
1.78762e-07
2.4379e-06
1.77723e-07
2.26115e-06
1.76808e-07
2.08576e-06
1.75454e-07
1.91156e-06
1.74245e-07
1.73854e-06
1.73054e-07
1.56711e-06
1.71465e-07
1.39788e-06
1.69249e-07
1.23138e-06
1.66514e-07
1.0679e-06
1.63476e-07
9.0704e-07
1.60863e-07
7.49035e-07
1.57999e-07
5.93865e-07
1.55162e-07
4.42008e-07
1.51848e-07
2.94167e-07
1.47835e-07
1.50859e-07
1.43307e-07
1.17279e-08
1.3914e-07
-1.23217e-07
1.34964e-07
-2.54477e-07
1.31288e-07
-3.81503e-07
1.27061e-07
-5.04685e-07
1.23218e-07
-6.22663e-07
1.18012e-07
-7.36678e-07
1.14044e-07
-8.46327e-07
1.09669e-07
-9.52035e-07
1.05722e-07
-1.05483e-06
1.02805e-07
-1.15376e-06
9.89371e-08
-1.24805e-06
9.42868e-08
-1.33754e-06
8.94951e-08
-1.42083e-06
8.32965e-08
-1.50141e-06
8.05931e-08
-1.57638e-06
7.49869e-08
-1.64739e-06
7.10205e-08
-1.7292e-06
8.18329e-08
-1.79345e-06
6.42655e-08
-1.85186e-06
5.84278e-08
-1.9135e-06
6.16534e-08
-1.95214e-06
3.86575e-08
-1.95405e-06
1.91938e-09
-1.95361e-06
-4.28297e-10
-1.97743e-06
2.38172e-08
-2.00403e-06
2.65989e-08
-2.04078e-06
3.67489e-08
-2.07303e-06
3.22484e-08
-2.099e-06
2.59681e-08
-2.11804e-06
1.90304e-08
-2.1356e-06
1.75456e-08
-2.14856e-06
1.29527e-08
-2.15511e-06
6.54697e-09
-2.19334e-06
3.82143e-08
-2.23524e-06
4.18902e-08
-2.24749e-06
1.22468e-08
-2.26294e-06
1.54455e-08
-2.21509e-06
-4.786e-08
-2.13423e-06
-8.08592e-08
-1.90816e-06
-2.26076e-07
-1.58529e-06
-3.22871e-07
-1.33339e-06
-2.519e-07
-1.12349e-06
-2.09896e-07
-9.86896e-07
-1.36599e-07
-8.66031e-07
-1.20865e-07
-7.73273e-07
-9.27583e-08
-6.86329e-07
-8.69444e-08
-6.1579e-07
-7.05396e-08
-5.51786e-07
-6.40043e-08
-4.81698e-07
-7.00894e-08
-4.29689e-07
-5.20106e-08
-3.71121e-07
-5.8569e-08
-2.93513e-07
-7.7611e-08
-2.67684e-07
-2.58309e-08
-2.07418e-07
-6.02694e-08
-9.49574e-08
-1.12464e-07
-1.54927e-07
5.99665e-08
-5.87418e-08
-9.61892e-08
-3.83978e-08
-2.03472e-08
1.4165e-07
-1.80052e-07
1.05767e-08
1.31071e-07
-1.24778e-07
1.35352e-07
1.87457e-07
-3.12236e-07
5.14462e-07
-3.27006e-07
7.91102e-07
-2.76641e-07
1.00861e-06
-2.17509e-07
1.18851e-06
-1.79898e-07
1.35239e-06
-1.6389e-07
1.50337e-06
-1.50981e-07
1.64276e-06
-1.39392e-07
1.77262e-06
-1.29863e-07
1.90059e-06
-1.27971e-07
2.02795e-06
-1.27365e-07
2.15059e-06
-1.22643e-07
2.27187e-06
-1.21287e-07
2.39222e-06
-1.20351e-07
2.5093e-06
-1.17077e-07
2.62866e-06
-1.19363e-07
2.74821e-06
-1.19548e-07
2.86573e-06
-1.17518e-07
2.98062e-06
-1.14885e-07
3.09934e-06
-1.1872e-07
3.22002e-06
-1.20672e-07
3.33801e-06
-1.17996e-07
3.45313e-06
-1.15118e-07
3.56746e-06
-1.1433e-07
3.68331e-06
-1.15845e-07
3.80032e-06
-1.1701e-07
3.91689e-06
-1.1657e-07
4.03379e-06
-1.16908e-07
4.1499e-06
-1.16117e-07
4.26672e-06
-1.16823e-07
4.38016e-06
-1.13437e-07
4.49202e-06
-1.1187e-07
4.60671e-06
-1.14696e-07
4.72471e-06
-1.18009e-07
4.84477e-06
-1.20066e-07
4.96525e-06
-1.20485e-07
5.08471e-06
-1.19465e-07
5.2032e-06
-1.18492e-07
5.32075e-06
-1.17553e-07
5.4378e-06
-1.17059e-07
5.55486e-06
-1.17069e-07
5.67216e-06
-1.17301e-07
5.7873e-06
-1.15148e-07
5.90404e-06
-1.16742e-07
6.0219e-06
-1.17866e-07
6.137e-06
-1.15101e-07
6.24876e-06
-1.11768e-07
6.35877e-06
-1.10016e-07
6.46807e-06
-1.09304e-07
6.57751e-06
-1.09435e-07
6.68756e-06
-1.10053e-07
6.79799e-06
-1.10432e-07
6.90851e-06
-1.1052e-07
7.01881e-06
-1.10301e-07
7.12854e-06
-1.09738e-07
7.2375e-06
-1.08958e-07
7.34569e-06
-1.08193e-07
7.45354e-06
-1.07843e-07
7.56141e-06
-1.07873e-07
7.66931e-06
-1.07902e-07
7.77686e-06
-1.07547e-07
7.88333e-06
-1.06472e-07
7.98861e-06
-1.05275e-07
8.09339e-06
-1.04784e-07
8.19851e-06
-1.05111e-07
8.30404e-06
-1.05529e-07
8.40868e-06
-1.04645e-07
8.51232e-06
-1.03635e-07
8.61477e-06
-1.0245e-07
8.71882e-06
-1.04058e-07
8.82092e-06
-1.02094e-07
8.92235e-06
-1.0143e-07
9.02488e-06
-1.02534e-07
9.1334e-06
-1.08525e-07
9.2442e-06
-1.108e-07
9.35379e-06
-1.09588e-07
9.46194e-06
-1.08149e-07
9.5695e-06
-1.07553e-07
9.67749e-06
-1.07995e-07
-1.18022e-07
4.32288e-05
5.83336e-07
4.76431e-05
-5.71433e-06
5.94035e-05
-1.73572e-05
7.1348e-05
-1.86088e-05
7.69654e-05
-1.03173e-05
7.53163e-05
-9.56882e-07
7.21299e-05
1.15932e-06
6.95528e-05
6.69252e-07
6.75702e-05
1.03746e-07
6.62839e-05
-1.67365e-07
6.53795e-05
-6.62798e-07
6.49736e-05
-1.49218e-06
6.52662e-05
-2.40908e-06
6.5923e-05
-3.03295e-06
6.6128e-05
-2.57575e-06
6.51783e-05
-6.27431e-07
6.29949e-05
2.83429e-06
5.97897e-05
6.22488e-06
5.51345e-05
8.49425e-06
5.00931e-05
1.0901e-05
4.69116e-05
1.24074e-05
4.46078e-05
1.1553e-05
4.17447e-05
9.09761e-06
3.88528e-05
7.33837e-06
3.64885e-05
5.4177e-06
3.43705e-05
4.16218e-06
3.23872e-05
3.96975e-06
3.03253e-05
4.26358e-06
2.81439e-05
4.63472e-06
2.59255e-05
4.69795e-06
2.38129e-05
4.21964e-06
2.20448e-05
3.65497e-06
2.06324e-05
3.25046e-06
1.94644e-05
2.58269e-06
1.84702e-05
1.68176e-06
1.74756e-05
1.5065e-06
1.62947e-05
2.21893e-06
1.49045e-05
3.28616e-06
1.34818e-05
3.73284e-06
1.2126e-05
3.04821e-06
1.10323e-05
1.75905e-06
1.02318e-05
1.20213e-06
9.41964e-06
1.4715e-06
8.25123e-06
2.30475e-06
6.86315e-06
3.03649e-06
5.47011e-06
3.11178e-06
4.13408e-06
2.49435e-06
3.11242e-06
1.56825e-06
2.41572e-06
1.10188e-06
1.85407e-06
1.00953e-06
1.30015e-06
9.97885e-07
6.16189e-07
1.10341e-06
-2.30005e-07
1.3034e-06
-1.30771e-06
1.93334e-06
-2.43145e-06
2.48525e-06
-3.36289e-06
2.56736e-06
-4.07122e-06
2.27249e-06
-4.8164e-06
1.95915e-06
-5.89402e-06
1.97011e-06
-7.22748e-06
2.27604e-06
-8.56574e-06
2.52954e-06
-9.70365e-06
2.18853e-06
-1.03797e-05
1.01613e-06
-1.05928e-05
-1.8285e-07
-1.06955e-05
-6.1359e-07
-1.08279e-05
-6.23398e-07
-1.11004e-05
-3.60452e-07
-1.15544e-05
-1.85126e-07
-1.20947e-05
-2.93677e-07
-1.24568e-05
-8.97727e-07
-1.22555e-05
-2.08216e-06
-1.14668e-05
-3.49696e-06
-1.01703e-05
-4.61373e-06
-8.43557e-06
-5.1981e-06
-6.30851e-06
-5.28744e-06
-3.54129e-06
-4.84031e-06
2.1348e-08
-3.75289e-06
4.82655e-06
-1.14259e-06
7.33862e-06
9.40147e-07
6.9158e-06
2.23396e-06
3.79725e-06
6.05e-06
4.59907e-07
4.86383e-06
-1.03655e-06
3.02921e-06
-3.26855e-06
2.75152e-06
-4.16228e-06
1.3245e-06
-4.92022e-06
1.1498e-06
-5.10624e-06
4.10275e-07
-4.86883e-06
-9.02229e-08
-4.55449e-06
-3.0155e-07
-4.71369e-06
7.38769e-08
-4.67129e-06
-4.19652e-07
-4.7206e-06
-5.69226e-07
-4.69718e-06
-9.28941e-07
-4.62889e-06
-1.35574e-06
-4.50352e-06
-2.02995e-06
-4.25382e-06
-2.57797e-06
-3.6497e-06
-3.36601e-06
-2.49868e-06
-3.9838e-06
-8.31996e-07
-3.95113e-06
1.7663e-06
-3.59488e-06
4.73185e-06
-2.94141e-06
7.2363e-06
-2.06924e-06
8.73931e-06
-7.71504e-07
9.39828e-06
-7.79684e-08
9.65254e-06
4.74631e-07
9.36313e-06
8.0789e-07
8.90928e-06
7.05133e-07
8.23375e-06
1.00892e-06
7.4871e-06
1.19787e-06
6.95301e-06
1.00015e-06
6.67598e-06
7.23458e-07
6.35205e-06
7.41078e-07
5.98242e-06
6.57925e-07
5.55738e-06
5.76903e-07
5.04363e-06
4.51827e-07
4.59742e-06
2.53969e-07
4.21983e-06
6.062e-08
4.12734e-06
6.45826e-08
4.32313e-06
1.73345e-07
4.64068e-06
1.67218e-07
4.64653e-06
5.78186e-07
4.27423e-06
9.24116e-07
3.86248e-06
1.0944e-06
3.36829e-06
1.1121e-06
2.83127e-06
1.06375e-06
2.15828e-06
1.21532e-06
1.53721e-06
1.15133e-06
1.00672e-06
1.06763e-06
4.8778e-07
1.08407e-06
-8.90992e-09
1.04124e-06
-5.15358e-07
1.02396e-06
-1.03782e-06
1.02209e-06
-1.54093e-06
9.84121e-07
-2.03121e-06
9.78383e-07
-2.51872e-06
9.68764e-07
-2.99342e-06
9.5138e-07
-3.45536e-06
9.27315e-07
-3.91047e-06
9.05952e-07
-4.36282e-06
9.01796e-07
-4.80611e-06
8.86854e-07
-5.24041e-06
8.71591e-07
-5.66402e-06
8.48539e-07
-6.07368e-06
8.20888e-07
-6.46968e-06
7.88234e-07
-6.85597e-06
7.66152e-07
-7.23764e-06
7.54943e-07
-7.6102e-06
7.41271e-07
-7.96907e-06
7.22016e-07
-8.31069e-06
6.92318e-07
-8.64067e-06
6.58234e-07
-8.96337e-06
6.38635e-07
-9.28045e-06
6.27247e-07
-9.5878e-06
6.11372e-07
-9.88021e-06
5.87965e-07
-1.01575e-05
5.60017e-07
-1.04264e-05
5.40558e-07
-1.06897e-05
5.23748e-07
-1.09448e-05
5.05116e-07
-1.11887e-05
4.84227e-07
-1.14204e-05
4.60782e-07
-1.16418e-05
4.4138e-07
-1.18536e-05
4.25156e-07
-1.20538e-05
4.02782e-07
-1.22421e-05
3.7509e-07
-1.24208e-05
3.54722e-07
-1.2592e-05
3.41551e-07
-1.27535e-05
3.24902e-07
-1.29026e-05
2.97955e-07
-1.3038e-05
2.68556e-07
-1.31633e-05
2.48936e-07
-1.32814e-05
2.36201e-07
-1.33897e-05
2.19088e-07
-1.34871e-05
1.97245e-07
-1.35735e-05
1.70558e-07
-1.36479e-05
1.45923e-07
-1.37113e-05
1.25622e-07
-1.37654e-05
1.10144e-07
-1.38108e-05
9.35478e-08
-1.38492e-05
7.77267e-08
-1.38795e-05
6.07006e-08
-1.39008e-05
4.32633e-08
-1.39126e-05
2.41819e-08
-1.39127e-05
-1.53382e-10
-1.39018e-05
-2.32056e-08
-1.38824e-05
-3.8964e-08
-1.38555e-05
-5.19446e-08
-1.38232e-05
-6.16553e-08
-1.37863e-05
-7.22896e-08
-1.37422e-05
-8.92529e-08
-1.36901e-05
-1.0732e-07
-1.36284e-05
-1.25649e-07
-1.35569e-05
-1.42076e-07
-1.34782e-05
-1.53069e-07
-1.33943e-05
-1.63256e-07
-1.33065e-05
-1.73091e-07
-1.32141e-05
-1.84856e-07
-1.31147e-05
-2.00807e-07
-1.30061e-05
-2.18796e-07
-1.28907e-05
-2.32046e-07
-1.27716e-05
-2.37817e-07
-1.26493e-05
-2.41345e-07
-1.25224e-05
-2.49709e-07
-1.23882e-05
-2.63965e-07
-1.22474e-05
-2.80517e-07
-1.21026e-05
-2.9198e-07
-1.19548e-05
-2.98287e-07
-1.18029e-05
-3.03822e-07
-1.16453e-05
-3.11915e-07
-1.14812e-05
-3.23569e-07
-1.13124e-05
-3.37267e-07
-1.11414e-05
-3.45029e-07
-1.09706e-05
-3.44557e-07
-1.07973e-05
-3.43028e-07
-1.06178e-05
-3.52841e-07
-1.0431e-05
-3.73951e-07
-1.02398e-05
-3.86153e-07
-1.00469e-05
-3.90437e-07
-9.85288e-06
-3.90602e-07
-9.66042e-06
-3.81759e-07
-9.46933e-06
-3.76958e-07
-9.27744e-06
-3.82041e-07
-9.08218e-06
-3.93532e-07
-8.88406e-06
-4.01745e-07
-8.68781e-06
-3.98892e-07
-8.49423e-06
-3.90309e-07
-8.30454e-06
-3.74543e-07
-8.12002e-06
-3.63567e-07
-7.9409e-06
-3.57487e-07
-7.76444e-06
-3.54755e-07
-7.58987e-06
-3.54176e-07
-7.41932e-06
-3.46777e-07
-7.25469e-06
-3.31112e-07
-7.0987e-06
-3.07875e-07
-6.95049e-06
-2.93427e-07
-6.80622e-06
-2.88849e-07
-6.66326e-06
-2.84276e-07
-6.52376e-06
-2.77873e-07
-6.38984e-06
-2.68348e-07
-6.26322e-06
-2.54111e-07
-6.14522e-06
-2.38756e-07
-6.03548e-06
-2.25182e-07
-5.93014e-06
-2.1394e-07
-5.82659e-06
-2.04814e-07
-5.72353e-06
-1.99918e-07
-5.62269e-06
-1.97858e-07
-5.52577e-06
-1.95981e-07
-5.43265e-06
-1.91909e-07
-5.34281e-06
-1.8464e-07
-5.25623e-06
-1.71338e-07
-5.17087e-06
-1.65536e-07
-5.08403e-06
-1.73294e-07
-4.99478e-06
-1.80918e-07
-4.90633e-06
-1.80217e-07
-4.81967e-06
-1.77806e-07
-4.73249e-06
-1.75803e-07
-4.64209e-06
-1.77709e-07
-4.54744e-06
-1.86118e-07
-4.44995e-06
-1.9349e-07
-4.35075e-06
-1.98746e-07
-4.25107e-06
-2.03247e-07
-4.15021e-06
-2.06324e-07
-4.04334e-06
-2.14364e-07
-3.92864e-06
-2.26933e-07
-3.8087e-06
-2.38427e-07
-3.68438e-06
-2.50379e-07
-3.55596e-06
-2.59779e-07
-3.42493e-06
-2.63826e-07
-3.29001e-06
-2.68093e-07
-3.14929e-06
-2.78817e-07
-3.0011e-06
-2.96008e-07
-2.84571e-06
-3.12313e-07
-2.68492e-06
-3.23528e-07
-2.5195e-06
-3.33563e-07
-2.34905e-06
-3.42907e-07
-2.1725e-06
-3.50949e-07
-1.99095e-06
-3.60216e-07
-1.80475e-06
-3.71483e-07
-1.61385e-06
-3.82763e-07
-1.4176e-06
-3.94199e-07
-1.2156e-06
-4.05202e-07
-1.00832e-06
-4.1537e-07
-7.96685e-07
-4.24233e-07
-5.82479e-07
-4.28893e-07
-3.65896e-07
-4.31683e-07
-1.45503e-07
-4.39579e-07
7.90704e-08
-4.49068e-07
3.0643e-07
-4.54879e-07
5.35624e-07
-4.58753e-07
7.66509e-07
-4.62324e-07
9.99678e-07
-4.66021e-07
1.2345e-06
-4.6797e-07
1.47051e-06
-4.70111e-07
1.70763e-06
-4.72892e-07
1.94531e-06
-4.74952e-07
2.18328e-06
-4.76187e-07
2.42185e-06
-4.77091e-07
2.66098e-06
-4.76957e-07
2.90003e-06
-4.75849e-07
3.1378e-06
-4.74027e-07
3.37368e-06
-4.71504e-07
3.60862e-06
-4.70086e-07
3.843e-06
-4.68422e-07
4.07611e-06
-4.64626e-07
4.3069e-06
-4.5981e-07
4.53445e-06
-4.54549e-07
4.75939e-06
-4.49601e-07
4.98227e-06
-4.44715e-07
5.20207e-06
-4.38117e-07
5.41782e-06
-4.30382e-07
5.62947e-06
-4.22709e-07
5.83734e-06
-4.15343e-07
6.0412e-06
-4.07015e-07
6.24033e-06
-3.96993e-07
6.43401e-06
-3.862e-07
6.62229e-06
-3.75936e-07
6.80545e-06
-3.65846e-07
6.9832e-06
-3.5481e-07
7.15508e-06
-3.42813e-07
7.32064e-06
-3.30256e-07
7.47958e-06
-3.17334e-07
7.63191e-06
-3.04315e-07
7.77758e-06
-2.90965e-07
7.91645e-06
-2.77046e-07
8.04829e-06
-2.62846e-07
8.17281e-06
-2.4854e-07
8.28978e-06
-2.33828e-07
8.39911e-06
-2.1859e-07
8.50086e-06
-2.03123e-07
8.59505e-06
-1.87959e-07
8.68157e-06
-1.72847e-07
8.76022e-06
-1.57491e-07
8.83091e-06
-1.41654e-07
8.89356e-06
-1.25197e-07
8.94822e-06
-1.08974e-07
8.99503e-06
-9.34652e-08
9.03408e-06
-7.83319e-08
9.06537e-06
-6.30355e-08
9.08897e-06
-4.76813e-08
9.10504e-06
-3.23792e-08
9.11353e-06
-1.70259e-08
9.11437e-06
-1.94161e-09
9.10777e-06
1.26547e-08
9.09402e-06
2.68245e-08
9.07306e-06
4.1157e-08
9.04504e-06
5.54461e-08
9.01039e-06
6.90553e-08
8.9692e-06
8.21114e-08
8.92146e-06
9.48567e-08
8.86733e-06
1.07427e-07
8.80696e-06
1.20015e-07
8.74055e-06
1.32454e-07
8.66828e-06
1.44167e-07
8.59034e-06
1.55075e-07
8.50694e-06
1.65971e-07
8.41823e-06
1.76913e-07
8.3243e-06
1.87332e-07
8.22514e-06
1.97487e-07
8.1211e-06
2.07184e-07
8.01256e-06
2.16331e-07
7.89967e-06
2.2516e-07
7.78244e-06
2.33821e-07
7.66096e-06
2.42251e-07
7.5355e-06
2.50234e-07
7.4062e-06
2.58041e-07
7.2732e-06
2.6569e-07
7.13663e-06
2.7303e-07
6.99655e-06
2.79926e-07
6.85314e-06
2.86382e-07
6.70654e-06
2.9263e-07
6.55691e-06
2.9885e-07
6.40435e-06
3.04942e-07
6.249e-06
3.1055e-07
6.09116e-06
3.15409e-07
5.93103e-06
3.19897e-07
5.7686e-06
3.24613e-07
5.60392e-06
3.29166e-07
5.43695e-06
3.33558e-07
5.26806e-06
3.37428e-07
5.09756e-06
3.41141e-07
4.9255e-06
3.44672e-07
4.75178e-06
3.47714e-07
4.57669e-06
3.49959e-07
4.40047e-06
3.51984e-07
4.2232e-06
3.54108e-07
4.04496e-06
3.56095e-07
3.866e-06
3.57672e-07
3.6865e-06
3.5907e-07
3.50686e-06
3.59439e-07
3.32695e-06
3.59601e-07
3.14695e-06
3.59694e-07
2.96735e-06
3.59596e-07
2.78842e-06
3.58705e-07
2.60991e-06
3.57339e-07
2.43193e-06
3.55783e-07
2.25482e-06
3.53982e-07
2.07926e-06
3.51072e-07
1.90521e-06
3.4835e-07
1.733e-06
3.45296e-07
1.56245e-06
3.42036e-07
1.39353e-06
3.38181e-07
1.22707e-06
3.32974e-07
1.06337e-06
3.27165e-07
9.02336e-07
3.21892e-07
7.4466e-07
3.15666e-07
5.90273e-07
3.09546e-07
4.392e-07
3.02927e-07
2.91528e-07
2.95526e-07
1.47393e-07
2.87474e-07
7.33512e-09
2.79241e-07
-1.28291e-07
2.70642e-07
-2.59447e-07
2.62501e-07
-3.86101e-07
2.53771e-07
-5.08358e-07
2.45526e-07
-6.26958e-07
2.36653e-07
-7.42582e-07
2.29699e-07
-8.54771e-07
2.2188e-07
-9.61719e-07
2.12683e-07
-1.06318e-06
2.04271e-07
-1.15756e-06
1.93328e-07
-1.25038e-06
1.87116e-07
-1.33915e-06
1.78283e-07
-1.42739e-06
1.71561e-07
-1.52364e-06
1.7686e-07
-1.60408e-06
1.55461e-07
-1.67515e-06
1.42116e-07
-1.73635e-06
1.4307e-07
-1.78234e-06
1.10283e-07
-1.79975e-06
7.58555e-08
-1.80848e-06
7.04101e-08
-1.83969e-06
6.9879e-08
-1.89191e-06
5.41417e-08
-1.94986e-06
5.75266e-08
-1.99484e-06
6.87952e-08
-2.02832e-06
6.00791e-08
-2.05515e-06
6.35678e-08
-2.07061e-06
4.76941e-08
-2.08209e-06
3.74333e-08
-2.0986e-06
3.55196e-08
-2.14536e-06
6.42918e-08
-2.20209e-06
6.96625e-08
-2.21921e-06
2.36445e-08
-2.20837e-06
2.73637e-08
-2.11571e-06
-5.07838e-08
-2.00325e-06
-1.00223e-07
-1.76498e-06
-2.22835e-07
-1.46623e-06
-3.46618e-07
-1.2252e-06
-3.219e-07
-1.08872e-06
-3.62562e-07
-1.05061e-06
-3.60977e-07
-1.00077e-06
-3.01747e-07
-9.33321e-07
-2.77344e-07
-8.68933e-07
-2.00987e-07
-7.94037e-07
-1.95761e-07
-7.24215e-07
-1.6258e-07
-6.60086e-07
-1.51074e-07
-5.9985e-07
-1.30776e-07
-5.39424e-07
-1.24432e-07
-4.56237e-07
-1.53279e-07
-4.21957e-07
-8.62925e-08
-3.52548e-07
-1.27981e-07
-2.45744e-07
-1.8442e-07
-2.76156e-07
4.57672e-09
-1.91629e-07
-1.44801e-07
-2.19993e-07
-8.4105e-08
6.86945e-08
-2.28729e-07
-2.87179e-08
1.21601e-09
-1.00653e-07
5.15772e-08
1.31589e-07
-4.12305e-07
4.05653e-07
-1.43003e-07
7.33123e-07
-1.9213e-07
8.3636e-07
-4.15483e-07
9.57893e-07
-4.48548e-07
1.08893e-06
-4.07682e-07
1.21969e-06
-3.48281e-07
1.34377e-06
-3.03988e-07
1.46551e-06
-2.85632e-07
1.58778e-06
-2.73258e-07
1.70866e-06
-2.60278e-07
1.82955e-06
-2.50762e-07
1.95113e-06
-2.4956e-07
2.0726e-06
-2.48832e-07
2.19217e-06
-2.42216e-07
2.31094e-06
-2.4006e-07
2.4296e-06
-2.39008e-07
2.54808e-06
-2.35557e-07
2.66689e-06
-2.38176e-07
2.78583e-06
-2.3848e-07
2.90493e-06
-2.36609e-07
3.02402e-06
-2.33974e-07
3.14349e-06
-2.38187e-07
3.26299e-06
-2.4017e-07
3.38211e-06
-2.37117e-07
3.50066e-06
-2.33665e-07
3.61903e-06
-2.32693e-07
3.73693e-06
-2.33749e-07
3.85469e-06
-2.34769e-07
3.97256e-06
-2.34452e-07
4.09105e-06
-2.35396e-07
4.20857e-06
-2.33645e-07
4.32448e-06
-2.32743e-07
4.4405e-06
-2.29468e-07
4.55704e-06
-2.28423e-07
4.67378e-06
-2.31443e-07
4.79085e-06
-2.35088e-07
4.90795e-06
-2.37172e-07
5.0248e-06
-2.3735e-07
5.14226e-06
-2.36931e-07
5.25943e-06
-2.35677e-07
5.37641e-06
-2.34543e-07
5.49342e-06
-2.34081e-07
5.61017e-06
-2.33827e-07
5.72604e-06
-2.33173e-07
5.84131e-06
-2.30429e-07
5.95603e-06
-2.31468e-07
6.06991e-06
-2.3176e-07
6.18313e-06
-2.28323e-07
6.29587e-06
-2.2451e-07
6.40815e-06
-2.22302e-07
6.52008e-06
-2.21237e-07
6.6315e-06
-2.2086e-07
6.74228e-06
-2.2084e-07
6.8527e-06
-2.20849e-07
6.96291e-06
-2.20732e-07
7.07291e-06
-2.20297e-07
7.18252e-06
-2.19356e-07
7.29156e-06
-2.17997e-07
7.40006e-06
-2.16687e-07
7.50808e-06
-2.15862e-07
7.61581e-06
-2.15606e-07
7.72332e-06
-2.15405e-07
7.83001e-06
-2.14239e-07
7.93577e-06
-2.12234e-07
8.04112e-06
-2.10622e-07
8.1466e-06
-2.10261e-07
8.25206e-06
-2.10571e-07
8.35696e-06
-2.10423e-07
8.46087e-06
-2.08547e-07
8.56478e-06
-2.07549e-07
8.66923e-06
-2.06899e-07
8.77363e-06
-2.0846e-07
8.87731e-06
-2.05771e-07
8.98018e-06
-2.04296e-07
9.084e-06
-2.06352e-07
9.18818e-06
-2.12705e-07
9.29212e-06
-2.14741e-07
9.39524e-06
-2.12701e-07
9.49783e-06
-2.10734e-07
9.59989e-06
-2.09616e-07
9.70155e-06
-2.09658e-07
-2.11979e-07
4.36972e-05
3.84015e-07
5.51848e-05
-1.72018e-05
6.94575e-05
-3.16299e-05
8.15344e-05
-3.06856e-05
8.79044e-05
-1.66872e-05
8.49234e-05
2.02416e-06
7.77192e-05
8.36353e-06
7.07689e-05
7.61959e-06
6.532e-05
5.5527e-06
6.10057e-05
4.14696e-06
5.70357e-05
3.30721e-06
5.31446e-05
2.39896e-06
4.97405e-05
9.95003e-07
4.69458e-05
-2.38227e-07
4.41193e-05
2.50802e-07
4.10951e-05
2.39676e-06
3.85441e-05
5.38527e-06
3.69047e-05
7.86429e-06
3.55725e-05
9.82648e-06
3.51078e-05
1.13657e-05
3.57689e-05
1.17462e-05
3.63513e-05
1.09706e-05
3.5652e-05
9.79682e-06
3.43932e-05
8.59717e-06
3.28544e-05
6.95643e-06
3.12703e-05
5.74625e-06
2.99001e-05
5.33987e-06
2.83773e-05
5.78633e-06
2.66181e-05
6.39383e-06
2.47493e-05
6.56673e-06
2.28306e-05
6.13826e-06
2.1349e-05
5.13657e-06
2.0371e-05
4.22831e-06
1.94635e-05
3.49013e-06
1.82285e-05
2.91668e-06
1.68446e-05
2.8903e-06
1.573e-05
3.3335e-06
1.48796e-05
4.13644e-06
1.40566e-05
4.55577e-06
1.30243e-05
4.0804e-06
1.17457e-05
3.03755e-06
1.0527e-05
2.42082e-06
9.42405e-06
2.57433e-06
8.30817e-06
3.42055e-06
7.13139e-06
4.21319e-06
5.87756e-06
4.36554e-06
4.47147e-06
3.90036e-06
3.12091e-06
2.91875e-06
2.01723e-06
2.20549e-06
1.10404e-06
1.92265e-06
2.09285e-07
1.89257e-06
-7.31961e-07
2.04459e-06
-1.75378e-06
2.32515e-06
-2.61141e-06
2.7909e-06
-3.19421e-06
3.06798e-06
-3.52642e-06
2.8995e-06
-3.81087e-06
2.55687e-06
-4.35373e-06
2.50195e-06
-5.40215e-06
3.01847e-06
-6.75003e-06
3.62387e-06
-8.02116e-06
3.80062e-06
-9.12098e-06
3.2883e-06
-1.01257e-05
2.02082e-06
-1.09205e-05
6.1187e-07
-1.14105e-05
-1.23552e-07
-1.17971e-05
-2.36868e-07
-1.21758e-05
1.81653e-08
-1.26456e-05
2.84677e-07
-1.32659e-05
3.26634e-07
-1.39767e-05
-1.86978e-07
-1.46781e-05
-1.38078e-06
-1.53953e-05
-2.77984e-06
-1.59561e-05
-4.05296e-06
-1.62411e-05
-4.91318e-06
-1.62139e-05
-5.31465e-06
-1.57309e-05
-5.32332e-06
-1.45504e-05
-4.9334e-06