/*--------------------------------*- C++ -*----------------------------------*\
| =========                 |                                                 |
| \\      /  F ield         | OpenFOAM: The Open Source CFD Toolbox           |
|  \\    /   O peration     | Version:  v2006                                 |
|   \\  /    A nd           | Website:  www.openfoam.com                      |
|    \\/     M anipulation  |                                                 |
\*---------------------------------------------------------------------------*/
FoamFile
{
    version     2.0;
    format      ascii;
    class       volVectorField;
    location    "6.6";
    object      U;
}
// * * * * * * * * * * * * * * * * * * * * * * * * * * * * * * * * * * * * * //

dimensions      [0 1 -1 0 0 0 0];


internalField   nonuniform List<vector> 
33000
(
(0.104034 0 0.00142785)
(0.106905 0 -0.000331714)
(0.11949 0 -0.00651484)
(0.132782 0 -0.0107813)
(0.148412 0 -0.0110433)
(0.157376 0 -0.00860965)
(0.163381 0 -0.00804145)
(0.168051 0 -0.0075714)
(0.172622 0 -0.00803913)
(0.177325 0 -0.0057041)
(0.179904 0 -0.00552277)
(0.184285 0 -0.00503733)
(0.188748 0 -0.00485443)
(0.193929 0 -0.00675625)
(0.20076 0 -0.00830172)
(0.20714 0 -0.00643733)
(0.20895 0 -0.00198602)
(0.205391 0 0.00155664)
(0.193968 0 -0.00122376)
(0.185057 0 0.00455492)
(0.165876 0 0.0242713)
(0.136569 0 0.0294023)
(0.118566 0 0.0180981)
(0.106521 0 0.0113217)
(0.0967231 0 0.00762978)
(0.0913234 0 0.00439817)
(0.0867628 0 0.00411601)
(0.0813683 0 0.0050918)
(0.0756142 0 0.00569809)
(0.0691518 0 0.00556836)
(0.0632795 0 0.00440377)
(0.0586135 0 0.00411732)
(0.0538886 0 0.0041718)
(0.0492903 0 0.00325493)
(0.046804 0 0.0013743)
(0.0458449 0 0.000670349)
(0.0444078 0 0.00191139)
(0.0405223 0 0.00431818)
(0.0348751 0 0.0055338)
(0.0290999 0 0.00405065)
(0.0264705 0 0.00117724)
(0.0256481 0 0.000568387)
(0.0245081 0 0.00141686)
(0.0223789 0 0.00242445)
(0.0186699 0 0.0037837)
(0.0141269 0 0.00413005)
(0.0102367 0 0.00241753)
(0.00834549 0 0.000829875)
(0.00744479 0 0.000790052)
(0.0062302 0 0.00102075)
(0.00529757 0 0.000978531)
(0.00395343 0 0.000790075)
(0.00319397 0 0.000695868)
(0.00169185 0 0.0014731)
(-0.00111171 0 0.00285399)
(-0.00510363 0 0.00386074)
(-0.00927995 0 0.00397532)
(-0.012813 0 0.00296744)
(-0.0152872 0 0.00165823)
(-0.0174615 0 0.00163085)
(-0.0201029 0 0.00244898)
(-0.0234377 0 0.00227091)
(-0.0252322 0 0.00048929)
(-0.0250066 0 -0.00120771)
(-0.0235156 0 -0.00239243)
(-0.0214864 0 -0.00260413)
(-0.0196702 0 -0.00222652)
(-0.0182715 0 -0.00265121)
(-0.0165037 0 -0.0036653)
(-0.0138135 0 -0.00507538)
(-0.0100906 0 -0.00665354)
(-0.0042512 0 -0.00882263)
(0.00331535 0 -0.0103892)
(0.0120785 0 -0.0103557)
(0.0201168 0 -0.00834466)
(0.0285273 0 -0.00339607)
(0.0291264 0 0.0056248)
(0.0326908 0 0.0188769)
(0.00918664 0 0.01086)
(0.0145447 0 0.00136695)
(0.000900434 0 0.00131048)
(-0.000471596 0 -0.000761288)
(-0.0066886 0 0.0047135)
(-0.00807241 0 0.00135416)
(-0.00932169 0 0.00228122)
(-0.0102843 0 0.000188829)
(-0.0111734 0 0.000613173)
(-0.0115088 0 -0.000361115)
(-0.0118094 0 -0.000123532)
(-0.0116649 0 -0.00029386)
(-0.0113027 0 -0.000780389)
(-0.00983521 0 -0.00137952)
(-0.00818121 0 -0.00293511)
(-0.00531823 0 -0.00418391)
(-0.00172811 0 -0.00674392)
(0.00417594 0 -0.00786949)
(0.00997705 0 -0.00933846)
(0.0178504 0 -0.00767759)
(0.0243577 0 -0.00465668)
(0.0291286 0 0.0020637)
(0.0292611 0 0.00533988)
(0.0291641 0 0.00558382)
(0.0269677 0 0.00266688)
(0.0256293 0 -0.00100264)
(0.0239685 0 -0.000817939)
(0.0220289 0 -0.00033696)
(0.0213649 0 0.00132709)
(0.0207708 0 0.00159877)
(0.0196964 0 0.00212444)
(0.0185196 0 0.00140037)
(0.0173639 0 0.000734808)
(0.0162925 0 0.000524938)
(0.015271 0 0.000382273)
(0.0148529 0 0.00024172)
(0.0145224 0 -0.000676405)
(0.015125 0 -0.00101907)
(0.0155678 0 -0.00178305)
(0.0166503 0 4.17979e-05)
(0.0156495 0 0.00174775)
(0.0148996 0 0.00266402)
(0.0131698 0 0.00216752)
(0.0120152 0 0.000884238)
(0.0103879 0 0.000795268)
(0.00861233 0 0.000770207)
(0.00729637 0 0.0012194)
(0.00597573 0 0.00132582)
(0.00458819 0 0.00134215)
(0.00332184 0 0.00104042)
(0.00190598 0 0.00109459)
(0.000491343 0 0.000984484)
(-0.000812766 0 0.00109178)
(-0.00210034 0 0.00100165)
(-0.00330642 0 0.00103246)
(-0.00451071 0 0.000928624)
(-0.00574162 0 0.000942385)
(-0.00692095 0 0.000857225)
(-0.00812261 0 0.000872707)
(-0.00924826 0 0.000839743)
(-0.0103783 0 0.000855597)
(-0.0114937 0 0.000859282)
(-0.012598 0 0.000841704)
(-0.0136781 0 0.000825775)
(-0.0147247 0 0.00078933)
(-0.0157317 0 0.000762429)
(-0.0166883 0 0.000731024)
(-0.0176296 0 0.000725033)
(-0.0185559 0 0.000712138)
(-0.0194719 0 0.000714002)
(-0.0203726 0 0.000691454)
(-0.0212225 0 0.000642821)
(-0.0220165 0 0.000612302)
(-0.0228009 0 0.000603421)
(-0.0235676 0 0.000592231)
(-0.0243207 0 0.000584236)
(-0.0250445 0 0.000561128)
(-0.0257354 0 0.000538013)
(-0.0264019 0 0.000509926)
(-0.027038 0 0.000489745)
(-0.0276523 0 0.000471434)
(-0.0282395 0 0.000451889)
(-0.0287984 0 0.000433978)
(-0.0293397 0 0.000422883)
(-0.0298655 0 0.000400904)
(-0.0303519 0 0.000367682)
(-0.0308008 0 0.000346027)
(-0.0312323 0 0.000335286)
(-0.0316532 0 0.000323027)
(-0.0320483 0 0.000293019)
(-0.0323981 0 0.00026127)
(-0.0327146 0 0.000241981)
(-0.0330171 0 0.000231131)
(-0.0333044 0 0.000219616)
(-0.0335719 0 0.00019874)
(-0.0338022 0 0.00016365)
(-0.0339941 0 0.00013882)
(-0.0341594 0 0.000121014)
(-0.0343065 0 0.000110816)
(-0.0344385 0 9.71169e-05)
(-0.0345479 0 7.84672e-05)
(-0.0346348 0 6.01711e-05)
(-0.0347004 0 4.2733e-05)
(-0.0347446 0 2.32666e-05)
(-0.034762 0 -1.7649e-06)
(-0.0347436 0 -2.51511e-05)
(-0.0347016 0 -3.76209e-05)
(-0.0346456 0 -4.71352e-05)
(-0.034577 0 -5.49689e-05)
(-0.0344986 0 -6.90582e-05)
(-0.0344 0 -9.06776e-05)
(-0.0342733 0 -0.000111406)
(-0.0341243 0 -0.000127374)
(-0.0339541 0 -0.000137559)
(-0.0337722 0 -0.000142173)
(-0.0335816 0 -0.000151896)
(-0.0333761 0 -0.000165951)
(-0.0331552 0 -0.000183075)
(-0.0329137 0 -0.000201278)
(-0.0326485 0 -0.00021757)
(-0.0323629 0 -0.000230064)
(-0.0320659 0 -0.00023383)
(-0.0317699 0 -0.000232133)
(-0.0314699 0 -0.000237658)
(-0.0311565 0 -0.000250463)
(-0.0308207 0 -0.000273443)
(-0.0304589 0 -0.000291334)
(-0.0300848 0 -0.000297981)
(-0.0297074 0 -0.000299403)
(-0.0293252 0 -0.000301265)
(-0.0289366 0 -0.000309169)
(-0.0285276 0 -0.000330414)
(-0.0280955 0 -0.000344073)
(-0.027658 0 -0.000343822)
(-0.027228 0 -0.000331226)
(-0.0268097 0 -0.000334458)
(-0.0263609 0 -0.000367784)
(-0.0258759 0 -0.000386655)
(-0.0253861 0 -0.000391916)
(-0.0248891 0 -0.000387747)
(-0.0244041 0 -0.000367239)
(-0.0239423 0 -0.000359681)
(-0.0234751 0 -0.000372606)
(-0.0229914 0 -0.000393071)
(-0.0224843 0 -0.000404319)
(-0.0219741 0 -0.000402707)
(-0.021471 0 -0.000388257)
(-0.0209918 0 -0.000358046)
(-0.0205463 0 -0.000346163)
(-0.0200969 0 -0.000350373)
(-0.0196549 0 -0.000352353)
(-0.0192053 0 -0.000356018)
(-0.0187575 0 -0.000350317)
(-0.0183239 0 -0.000328073)
(-0.0179258 0 -0.000294431)
(-0.0175638 0 -0.000282174)
(-0.0171994 0 -0.000284771)
(-0.0168412 0 -0.000276857)
(-0.0164927 0 -0.000270606)
(-0.0161496 0 -0.000262782)
(-0.0158209 0 -0.00024807)
(-0.0155123 0 -0.000236826)
(-0.0152172 0 -0.000231469)
(-0.0149354 0 -0.000217256)
(-0.0146744 0 -0.000198385)
(-0.014429 0 -0.000184867)
(-0.0141901 0 -0.000186881)
(-0.0139435 0 -0.000196048)
(-0.0136951 0 -0.000197313)
(-0.013449 0 -0.00018871)
(-0.0132212 0 -0.000163822)
(-0.0130246 0 -0.000152687)
(-0.0128194 0 -0.000170579)
(-0.0125919 0 -0.000182153)
(-0.0123609 0 -0.000181724)
(-0.0121324 0 -0.000181184)
(-0.0119049 0 -0.000174508)
(-0.011689 0 -0.000168689)
(-0.0114678 0 -0.000176374)
(-0.0112315 0 -0.000187343)
(-0.0109878 0 -0.000195647)
(-0.0107337 0 -0.000205777)
(-0.0104701 0 -0.000210757)
(-0.0102065 0 -0.000210835)
(-0.00993261 0 -0.000217182)
(-0.00964567 0 -0.000230825)
(-0.00934024 0 -0.000248443)
(-0.00901586 0 -0.000260393)
(-0.00868369 0 -0.000263038)
(-0.00835236 0 -0.00026003)
(-0.00801796 0 -0.000268751)
(-0.00766203 0 -0.000290251)
(-0.0072791 0 -0.000309737)
(-0.00687781 0 -0.000321564)
(-0.0064655 0 -0.000332603)
(-0.00603713 0 -0.000339944)
(-0.00560339 0 -0.000340474)
(-0.00516499 0 -0.000349694)
(-0.00470989 0 -0.000365006)
(-0.00423846 0 -0.000378773)
(-0.00375038 0 -0.000390506)
(-0.00324856 0 -0.000400411)
(-0.00273414 0 -0.00041026)
(-0.00220804 0 -0.000419362)
(-0.00167088 0 -0.000422983)
(-0.00113473 0 -0.000422511)
(-0.000594993 0 -0.00043086)
(-3.85234e-05 0 -0.000442127)
(0.000527585 0 -0.000448263)
(0.0010993 0 -0.000452164)
(0.0016754 0 -0.000455732)
(0.0022568 0 -0.000457987)
(0.00283971 0 -0.000457837)
(0.00342301 0 -0.000459572)
(0.0040105 0 -0.000463442)
(0.00460236 0 -0.000466991)
(0.00519722 0 -0.000469052)
(0.00579384 0 -0.000469519)
(0.00639017 0 -0.000467046)
(0.00698314 0 -0.0004642)
(0.00757441 0 -0.000464054)
(0.0081644 0 -0.000463854)
(0.00875252 0 -0.000462824)
(0.00934 0 -0.000460042)
(0.00992241 0 -0.000454227)
(0.0104973 0 -0.000449215)
(0.0110673 0 -0.000446156)
(0.0116319 0 -0.000441845)
(0.0121904 0 -0.000435641)
(0.0127408 0 -0.000428427)
(0.0132818 0 -0.000421465)
(0.0138139 0 -0.000414933)
(0.0143371 0 -0.00040794)
(0.0148511 0 -0.00039909)
(0.0153527 0 -0.000388263)
(0.0158402 0 -0.000377867)
(0.0163151 0 -0.000368721)
(0.0167782 0 -0.000359042)
(0.0172283 0 -0.000347682)
(0.0176633 0 -0.000335538)
(0.0180829 0 -0.000323391)
(0.0184868 0 -0.000311231)
(0.0188749 0 -0.000298788)
(0.0192468 0 -0.000285504)
(0.0196014 0 -0.000271206)
(0.0199377 0 -0.000257016)
(0.0202565 0 -0.0002436)
(0.0205578 0 -0.000229782)
(0.0208408 0 -0.000214757)
(0.0211039 0 -0.000198921)
(0.0213475 0 -0.00018386)
(0.0215726 0 -0.000169358)
(0.0217789 0 -0.000155028)
(0.0219665 0 -0.000139559)
(0.0221333 0 -0.000122611)
(0.0222789 0 -0.000106349)
(0.0224047 0 -9.15933e-05)
(0.022512 0 -7.72785e-05)
(0.0226008 0 -6.25792e-05)
(0.0226704 0 -4.74017e-05)
(0.0227208 0 -3.18704e-05)
(0.0227515 0 -1.6482e-05)
(0.0227629 0 -2.11199e-06)
(0.0227564 0 1.16862e-05)
(0.022732 0 2.54596e-05)
(0.0226903 0 3.94082e-05)
(0.0226305 0 5.38558e-05)
(0.0225526 0 6.77734e-05)
(0.0224579 0 8.03325e-05)
(0.0223475 0 9.22378e-05)
(0.0222219 0 0.00010431)
(0.0220806 0 0.000116978)
(0.0219231 0 0.000129874)
(0.0217498 0 0.00014112)
(0.021563 0 0.00015104)
(0.0213634 0 0.000161825)
(0.0211494 0 0.000173161)
(0.0209216 0 0.000183069)
(0.0206816 0 0.000192464)
(0.0204292 0 0.000201868)
(0.0201652 0 0.000211218)
(0.0198897 0 0.000219916)
(0.0196034 0 0.000228449)
(0.0193063 0 0.000236515)
(0.0189993 0 0.000244603)
(0.0186823 0 0.000252477)
(0.0183555 0 0.000260519)
(0.0180188 0 0.000267784)
(0.0176732 0 0.000274311)
(0.0173196 0 0.000280266)
(0.0169583 0 0.000286087)
(0.0165896 0 0.000292471)
(0.0162124 0 0.000298882)
(0.0158278 0 0.000304374)
(0.0154366 0 0.000308714)
(0.0150404 0 0.000313037)
(0.0146381 0 0.000317769)
(0.0142298 0 0.000322406)
(0.0138161 0 0.000326132)
(0.0133974 0 0.000330382)
(0.0129736 0 0.000334517)
(0.0125445 0 0.00033916)
(0.0121107 0 0.000340869)
(0.0116745 0 0.000342788)
(0.0112361 0 0.000343878)
(0.0107954 0 0.000346919)
(0.0103515 0 0.000348371)
(0.00990572 0 0.000351088)
(0.00945748 0 0.00035203)
(0.00900763 0 0.000353545)
(0.00855831 0 0.00035227)
(0.0081093 0 0.00035334)
(0.00766001 0 0.000353801)
(0.00720981 0 0.000354789)
(0.00676163 0 0.000352015)
(0.0063163 0 0.000350271)
(0.00587322 0 0.000348549)
(0.00543265 0 0.00034635)
(0.00499611 0 0.00034462)
(0.00456179 0 0.000342795)
(0.00413088 0 0.000340832)
(0.0037048 0 0.000335066)
(0.00328451 0 0.000331657)
(0.00287257 0 0.000324111)
(0.00246681 0 0.0003216)
(0.00206864 0 0.000313779)
(0.00167633 0 0.00031233)
(0.00129328 0 0.000302761)
(0.000916511 0 0.000299622)
(0.000554651 0 0.000286066)
(0.000199351 0 0.000281292)
(-0.000140486 0 0.000266568)
(-0.000475952 0 0.000261046)
(-0.00079628 0 0.000248523)
(-0.00111152 0 0.00024199)
(-0.0014118 0 0.000234266)
(-0.00170173 0 0.000226573)
(-0.00198158 0 0.000219655)
(-0.00225023 0 0.00020108)
(-0.00250987 0 0.00019257)
(-0.00276441 0 0.00017759)
(-0.00300438 0 0.000186421)
(-0.00323604 0 0.000185871)
(-0.00345131 0 0.000192164)
(-0.00365338 0 0.000152817)
(-0.003853 0 0.000123479)
(-0.00402888 0 7.12978e-05)
(-0.00420868 0 0.000121317)
(-0.00443753 0 0.00012663)
(-0.00452749 0 0.000201113)
(-0.00473775 0 0.000228738)
(-0.00482124 0 9.40777e-05)
(-0.00493984 0 -0.000102315)
(-0.00483795 0 -7.31775e-05)
(-0.00492481 0 2.01189e-05)
(-0.00496569 0 -6.77948e-07)
(-0.0050519 0 3.60034e-05)
(-0.00515374 0 -7.79457e-06)
(-0.00521 0 5.18289e-05)
(-0.00528593 0 4.83809e-05)
(-0.00530357 0 0.000112151)
(-0.00537483 0 0.000115938)
(-0.00536744 0 1.5162e-05)
(-0.00540847 0 -3.60592e-05)
(-0.00555793 0 -0.00011333)
(-0.0056182 0 4.68697e-05)
(-0.00562016 0 0.000356392)
(-0.00569221 0 0.000521595)
(-0.00538677 0 0.000174868)
(-0.00528044 0 -0.000408049)
(-0.0042576 0 -0.0010714)
(-0.00367801 0 -0.000656539)
(-0.00298097 0 -0.000579667)
(-0.00264305 0 -0.000338122)
(-0.00228547 0 -0.000264672)
(-0.00204994 0 -0.000234748)
(-0.00181161 0 -0.000112333)
(-0.00162397 0 -0.00023537)
(-0.00145147 0 -4.61965e-05)
(-0.00130986 0 -0.000261699)
(-0.00109685 0 1.32785e-05)
(-0.00105321 0 -0.000254834)
(-0.000800292 0 1.35762e-05)
(-0.00066998 0 -0.000248762)
(-0.000665289 0 8.4318e-05)
(-0.000370621 0 -0.00039531)
(-0.000108173 0 0.000269972)
(-0.000666038 0 -0.000414088)
(0.00037805 0 -8.76216e-05)
(-0.000588602 0 0.000132829)
(0.00133256 0 0.000386319)
(-0.001253 0 0.000546059)
(0.000494576 0 -0.000945339)
(0.000676116 0 -0.000921448)
(0.00171714 0 -0.000738098)
(0.00228194 0 -0.000562601)
(0.00277439 0 -0.000447981)
(0.00319951 0 -0.00039311)
(0.00358557 0 -0.000344894)
(0.00394559 0 -0.000306168)
(0.00427938 0 -0.000274838)
(0.00459674 0 -0.000263989)
(0.00491456 0 -0.00025873)
(0.00522879 0 -0.000245634)
(0.00553146 0 -0.000241341)
(0.00583265 0 -0.000238302)
(0.00613102 0 -0.000229814)
(0.00642434 0 -0.000234967)
(0.00672203 0 -0.000235441)
(0.00702075 0 -0.000230397)
(0.00731189 0 -0.000223559)
(0.00760008 0 -0.000232706)
(0.00789864 0 -0.000237826)
(0.00819998 0 -0.000231728)
(0.00849232 0 -0.000225055)
(0.00877791 0 -0.000222949)
(0.00906442 0 -0.000226824)
(0.00935544 0 -0.000230221)
(0.00964766 0 -0.000229445)
(0.00993961 0 -0.000229622)
(0.0102305 0 -0.000227756)
(0.0105215 0 -0.000230607)
(0.0108115 0 -0.000222523)
(0.0110935 0 -0.000218001)
(0.0113737 0 -0.000224836)
(0.0116635 0 -0.000232689)
(0.0119619 0 -0.000237421)
(0.0122631 0 -0.000238899)
(0.0125636 0 -0.000235926)
(0.0128613 0 -0.000233)
(0.0131562 0 -0.000230804)
(0.0134493 0 -0.000229805)
(0.0137414 0 -0.00022949)
(0.0140349 0 -0.000231061)
(0.0143263 0 -0.000225399)
(0.0146137 0 -0.000230246)
(0.0149061 0 -0.000233572)
(0.0152002 0 -0.000226999)
(0.0154849 0 -0.000218752)
(0.015761 0 -0.000214636)
(0.0160345 0 -0.000212934)
(0.0163077 0 -0.000213471)
(0.0165818 0 -0.000215377)
(0.0168573 0 -0.000216673)
(0.0171335 0 -0.000217093)
(0.0174096 0 -0.000216625)
(0.0176849 0 -0.00021541)
(0.0179585 0 -0.000213829)
(0.0182299 0 -0.000212029)
(0.0184997 0 -0.000211325)
(0.0187689 0 -0.00021153)
(0.0190385 0 -0.000211473)
(0.0193081 0 -0.000211467)
(0.0195762 0 -0.000209833)
(0.0198411 0 -0.000206809)
(0.0201031 0 -0.000204762)
(0.0203646 0 -0.000205414)
(0.0206278 0 -0.000206971)
(0.0208915 0 -0.000206151)
(0.0211524 0 -0.000203462)
(0.0214094 0 -0.000199359)
(0.0216652 0 -0.000203892)
(0.0219286 0 -0.000198977)
(0.022177 0 -0.00019876)
(0.0224442 0 -0.000200135)
(0.022678 0 -0.000214963)
(0.0229983 0 -0.000221241)
(0.0231875 0 -0.000218551)
(0.0236506 0 -0.000215359)
(0.0235812 0 -0.000214526)
(0.0240701 0 -0.000215401)
(0.0259968 0 -0.000248357)
(0.105075 0 0.00105167)
(0.106781 0 -0.00896068)
(0.133019 0 -0.0346774)
(0.166892 0 -0.0389063)
(0.189033 0 -0.0230591)
(0.192025 0 -0.0101706)
(0.18587 0 -0.00787856)
(0.176885 0 -0.00787731)
(0.171313 0 -0.00734327)
(0.167428 0 -0.00630566)
(0.165058 0 -0.007419)
(0.162458 0 -0.0105519)
(0.162375 0 -0.0124641)
(0.163363 0 -0.0127569)
(0.164864 0 -0.0114707)
(0.16432 0 -0.00715617)
(0.162896 0 0.00601415)
(0.154907 0 0.0205049)
(0.142635 0 0.0295175)
(0.133326 0 0.0390162)
(0.12027 0 0.0462079)
(0.113746 0 0.042303)
(0.107695 0 0.0306444)
(0.100164 0 0.0237015)
(0.0938434 0 0.0164975)
(0.0883341 0 0.011714)
(0.0834164 0 0.011561)
(0.0784962 0 0.012455)
(0.0731582 0 0.0136379)
(0.0676903 0 0.0137668)
(0.061888 0 0.0120336)
(0.0571341 0 0.0106198)
(0.0530622 0 0.0102756)
(0.0499911 0 0.00791054)
(0.0473179 0 0.00413945)
(0.0449405 0 0.00344842)
(0.0424857 0 0.00624646)
(0.0391432 0 0.0103689)
(0.0353259 0 0.0122849)
(0.0320355 0 0.00913335)
(0.0287179 0 0.00412836)
(0.0263508 0 0.00265214)
(0.024766 0 0.00385312)
(0.022375 0 0.00660132)
(0.0188908 0 0.00917748)
(0.0153751 0 0.00923202)
(0.0118986 0 0.00666903)
(0.00885429 0 0.00355339)
(0.00669123 0 0.00246876)
(0.00530009 0 0.00255399)
(0.00398396 0 0.002548)
(0.00252607 0 0.00256134)
(0.000508914 0 0.00290901)
(-0.00176746 0 0.00529788)
(-0.00476341 0 0.00788666)
(-0.00750278 0 0.00886348)
(-0.00921663 0 0.00805071)
(-0.0109058 0 0.00635925)
(-0.0133399 0 0.00539355)
(-0.016293 0 0.00592134)
(-0.0198049 0 0.00702003)
(-0.0231637 0 0.0060213)
(-0.0253379 0 0.00216)
(-0.0264348 0 -0.00194655)
(-0.0266922 0 -0.00334571)
(-0.026859 0 -0.00346633)
(-0.0273626 0 -0.00288576)
(-0.0282604 0 -0.00253797)
(-0.0294621 0 -0.00313559)
(-0.0307737 0 -0.00517818)
(-0.0310944 0 -0.00857729)
(-0.0296865 0 -0.0130885)
(-0.0272035 0 -0.0165754)
(-0.0233375 0 -0.0180723)
(-0.0185434 0 -0.0178509)
(-0.0127295 0 -0.0143441)
(-0.00575342 0 -0.00774796)
(0.00626061 0 0.00713718)
(0.0182182 0 0.0156822)
(0.0167335 0 0.0134064)
(0.0203899 0 0.0228189)
(-0.00128686 0 0.013118)
(0.00320386 0 0.00729849)
(-0.00809369 0 0.0026284)
(-0.00840166 0 0.000904859)
(-0.0123039 0 0.00290546)
(-0.0123568 0 0.0011312)
(-0.0131313 0 0.00160392)
(-0.0111854 0 0.000278681)
(-0.0116767 0 -0.000350834)
(-0.0118173 0 -0.0021733)
(-0.0115972 0 -0.00350923)
(-0.0119615 0 -0.00417914)
(-0.0115525 0 -0.00595714)
(-0.0115611 0 -0.00823728)
(-0.0109832 0 -0.0104704)
(-0.0102529 0 -0.0124274)
(-0.00802228 0 -0.0146698)
(-0.00446309 0 -0.0134665)
(0.000285529 0 -0.0100728)
(0.00852504 0 -0.00522187)
(0.0151743 0 -0.00215223)
(0.0210404 0 0.00319523)
(0.0226065 0 0.005633)
(0.0243923 0 0.00658906)
(0.0238516 0 0.00440066)
(0.0229786 0 0.000626739)
(0.0215489 0 0.000998687)
(0.0196488 0 0.0014293)
(0.0177645 0 0.00226102)
(0.0170151 0 0.00278258)
(0.0163558 0 0.00274961)
(0.0154058 0 0.00187935)
(0.0145047 0 0.000938931)
(0.0132875 0 0.000173199)
(0.0119224 0 -0.000515225)
(0.0110785 0 -0.000754856)
(0.0100133 0 -0.000303204)
(0.010608 0 0.00115403)
(0.0110391 0 0.00117638)
(0.0121571 0 0.00246158)
(0.0110472 0 0.00345523)
(0.0103404 0 0.00456663)
(0.00896345 0 0.00407568)
(0.00788595 0 0.00292013)
(0.00626968 0 0.00293937)
(0.00452131 0 0.00282807)
(0.00316592 0 0.00318334)
(0.00186574 0 0.00334414)
(0.000576168 0 0.00329554)
(-0.000623495 0 0.00297428)
(-0.00195148 0 0.0029277)
(-0.00324084 0 0.00274639)
(-0.00446374 0 0.00290798)
(-0.00569385 0 0.00283854)
(-0.00689994 0 0.00288946)
(-0.00806746 0 0.00278553)
(-0.0092098 0 0.00270466)
(-0.0103437 0 0.00267796)
(-0.0114705 0 0.00262656)
(-0.0125611 0 0.00259535)
(-0.013641 0 0.00251338)
(-0.0146795 0 0.00244346)
(-0.0156889 0 0.00232047)
(-0.0166597 0 0.00225516)
(-0.0176212 0 0.0022088)
(-0.0185667 0 0.00218604)
(-0.0194849 0 0.00213916)
(-0.0203594 0 0.00206377)
(-0.0211946 0 0.00193691)
(-0.0220086 0 0.00187091)
(-0.0228088 0 0.00183436)
(-0.0235932 0 0.00179707)
(-0.0243455 0 0.0017377)
(-0.0250549 0 0.00166023)
(-0.0257326 0 0.00159637)
(-0.0263993 0 0.00153653)
(-0.0270492 0 0.00147577)
(-0.0276744 0 0.00141728)
(-0.0282684 0 0.00134859)
(-0.0288331 0 0.00129426)
(-0.0293756 0 0.00125388)
(-0.0298917 0 0.00119067)
(-0.0303768 0 0.00110037)
(-0.0308333 0 0.00103745)
(-0.0312706 0 0.0010033)
(-0.0316889 0 0.00096125)
(-0.032078 0 0.000876374)
(-0.0324341 0 0.000785425)
(-0.0327557 0 0.000730094)
(-0.0330606 0 0.000696842)
(-0.0333458 0 0.000650826)
(-0.0336022 0 0.000585902)
(-0.0338326 0 0.000497667)
(-0.0340342 0 0.000424121)
(-0.0342043 0 0.000368138)
(-0.0343515 0 0.000328893)
(-0.0344749 0 0.000281434)
(-0.034579 0 0.000230508)
(-0.0346662 0 0.000179125)
(-0.0347306 0 0.000129808)
(-0.034773 0 7.43278e-05)
(-0.0347891 0 2.56231e-07)
(-0.0347738 0 -7.0979e-05)
(-0.0347346 0 -0.000115745)
(-0.0346766 0 -0.000150158)
(-0.0346007 0 -0.000175571)
(-0.0345152 0 -0.00020854)
(-0.0344155 0 -0.000263733)
(-0.0342952 0 -0.000321595)
(-0.0341545 0 -0.000374522)
(-0.0339866 0 -0.000416934)
(-0.0337974 0 -0.000442745)
(-0.0335933 0 -0.000471725)
(-0.0333781 0 -0.000503742)
(-0.033154 0 -0.000543316)
(-0.0329162 0 -0.000594885)
(-0.0326565 0 -0.000648176)
(-0.0323738 0 -0.000686026)
(-0.0320796 0 -0.000698542)
(-0.0317782 0 -0.000703733)
(-0.0314684 0 -0.00072727)
(-0.0311432 0 -0.000768626)
(-0.0307974 0 -0.000824105)
(-0.0304393 0 -0.000864977)
(-0.0300738 0 -0.000883383)
(-0.0296999 0 -0.00089384)
(-0.0293143 0 -0.000911019)
(-0.0289118 0 -0.000943413)
(-0.0284941 0 -0.000992868)
(-0.0280677 0 -0.00102269)
(-0.0276397 0 -0.00102013)
(-0.0272129 0 -0.00100255)
(-0.0267737 0 -0.00102679)
(-0.0263148 0 -0.00110209)
(-0.0258401 0 -0.0011451)
(-0.0253592 0 -0.0011591)
(-0.024875 0 -0.00115693)
(-0.0243897 0 -0.00112012)
(-0.0239125 0 -0.00110074)
(-0.0234344 0 -0.00112124)
(-0.0229528 0 -0.00116446)
(-0.022458 0 -0.0011953)
(-0.0219627 0 -0.00118906)
(-0.0214763 0 -0.00115718)
(-0.0209953 0 -0.00109425)
(-0.0205276 0 -0.00106064)
(-0.0200729 0 -0.00105085)
(-0.0196316 0 -0.0010484)
(-0.0191906 0 -0.00105509)
(-0.018759 0 -0.00103424)
(-0.0183377 0 -0.000979994)
(-0.0179362 0 -0.000899084)
(-0.0175575 0 -0.000858964)
(-0.0171952 0 -0.000851177)
(-0.0168358 0 -0.000833462)
(-0.0164809 0 -0.000816518)
(-0.016138 0 -0.000793287)
(-0.0158116 0 -0.000753558)
(-0.0155047 0 -0.000711899)
(-0.0152219 0 -0.000675268)
(-0.0149555 0 -0.000635822)
(-0.0146954 0 -0.000597188)
(-0.0144374 0 -0.000576452)
(-0.0141805 0 -0.000575641)
(-0.013933 0 -0.000582425)
(-0.0136961 0 -0.000579157)
(-0.0134672 0 -0.000556439)
(-0.0132471 0 -0.000502592)
(-0.013034 0 -0.000477997)
(-0.0128205 0 -0.000509177)
(-0.0125995 0 -0.000538507)
(-0.0123746 0 -0.000539707)
(-0.0121571 0 -0.000535321)
(-0.0119413 0 -0.000522134)
(-0.0117211 0 -0.000517636)
(-0.0114892 0 -0.000542599)
(-0.0112479 0 -0.000567138)
(-0.0110018 0 -0.000586554)
(-0.0107519 0 -0.000607885)
(-0.0105035 0 -0.000617644)
(-0.0102474 0 -0.000633711)
(-0.00996917 0 -0.00066459)
(-0.00967394 0 -0.000700057)
(-0.00936952 0 -0.000741801)
(-0.00905223 0 -0.000771498)
(-0.00872763 0 -0.000780057)
(-0.00839696 0 -0.000786165)
(-0.00805304 0 -0.000816297)
(-0.0076933 0 -0.000871062)
(-0.00731203 0 -0.000923128)
(-0.00691647 0 -0.000957074)
(-0.00650802 0 -0.000988537)
(-0.0060895 0 -0.00101522)
(-0.00565559 0 -0.00103008)
(-0.00520694 0 -0.00105454)
(-0.00474772 0 -0.0010911)
(-0.00427604 0 -0.00112908)
(-0.00379315 0 -0.00116521)
(-0.00329484 0 -0.00119663)
(-0.00278316 0 -0.00122516)
(-0.00225841 0 -0.00125157)
(-0.00172505 0 -0.00126435)
(-0.00118737 0 -0.00126813)
(-0.000642127 0 -0.00129187)
(-8.51715e-05 0 -0.00132226)
(0.000480681 0 -0.00133988)
(0.00105179 0 -0.00135199)
(0.0016265 0 -0.0013632)
(0.0022064 0 -0.00137208)
(0.00279222 0 -0.00137466)
(0.00338056 0 -0.00138037)
(0.00397227 0 -0.00138967)
(0.00456615 0 -0.00139779)
(0.00516064 0 -0.00140305)
(0.00575605 0 -0.00140495)
(0.00635347 0 -0.00140183)
(0.00695171 0 -0.00139663)
(0.00754867 0 -0.00139227)
(0.00814053 0 -0.00138744)
(0.0087281 0 -0.00138459)
(0.00931524 0 -0.00137863)
(0.0099 0 -0.00136472)
(0.0104808 0 -0.00135014)
(0.0110539 0 -0.00133731)
(0.0116185 0 -0.00132324)
(0.0121786 0 -0.00130725)
(0.0127329 0 -0.00128691)
(0.0132776 0 -0.00126491)
(0.0138116 0 -0.00124334)
(0.0143359 0 -0.00122204)
(0.0148509 0 -0.00119697)
(0.0153552 0 -0.00116626)
(0.0158465 0 -0.00113465)
(0.0163236 0 -0.00110555)
(0.0167879 0 -0.00107626)
(0.0172393 0 -0.00104339)
(0.0176766 0 -0.0010075)
(0.0180987 0 -0.000970653)
(0.0185044 0 -0.000933348)
(0.0188934 0 -0.000895511)
(0.019266 0 -0.000856128)
(0.0196218 0 -0.000814571)
(0.0199603 0 -0.000772467)
(0.0202809 0 -0.000730913)
(0.0205829 0 -0.000688381)
(0.0208658 0 -0.000643612)
(0.0211296 0 -0.000597478)
(0.0213745 0 -0.000552713)
(0.0216005 0 -0.000508628)
(0.0218071 0 -0.000464138)
(0.0219938 0 -0.000417688)
(0.0221605 0 -0.000368486)
(0.022307 0 -0.000320163)
(0.0224337 0 -0.000274802)
(0.0225411 0 -0.000231071)
(0.022629 0 -0.000186609)
(0.0226975 0 -0.00014141)
(0.0227471 0 -9.58495e-05)
(0.0227778 0 -5.01274e-05)
(0.0227895 0 -5.99992e-06)
(0.022782 0 3.64801e-05)
(0.0227565 0 7.79406e-05)
(0.0227133 0 0.000119808)
(0.0226517 0 0.000162211)
(0.0225732 0 0.000203072)
(0.0224785 0 0.000241559)
(0.0223672 0 0.000278436)
(0.0222398 0 0.000314869)
(0.0220966 0 0.000352173)
(0.021938 0 0.000389649)
(0.0217645 0 0.000424428)
(0.0215766 0 0.000455766)
(0.0213749 0 0.000487689)
(0.0211596 0 0.00052069)
(0.0209314 0 0.000551555)
(0.02069 0 0.000580786)
(0.0204356 0 0.000609155)
(0.0201698 0 0.000636288)
(0.0198929 0 0.000662587)
(0.0196053 0 0.000687981)
(0.0193068 0 0.000712677)
(0.0189979 0 0.000735936)
(0.0186795 0 0.000759212)
(0.0183515 0 0.000782181)
(0.0180145 0 0.000804473)
(0.0176686 0 0.000824514)
(0.0173141 0 0.0008431)
(0.0169516 0 0.000861231)
(0.0165811 0 0.00087986)
(0.0162034 0 0.000898291)
(0.0158184 0 0.000914838)
(0.0154266 0 0.000929092)
(0.0150292 0 0.000942007)
(0.0146259 0 0.000956293)
(0.0142171 0 0.000969684)
(0.0138025 0 0.000982517)
(0.0133823 0 0.000993722)
(0.012958 0 0.0010061)
(0.0125298 0 0.0010171)
(0.0120976 0 0.0010264)
(0.0116614 0 0.00103139)
(0.0112221 0 0.00103749)
(0.0107804 0 0.00104293)
(0.0103356 0 0.00104942)
(0.00988929 0 0.00105342)
(0.00944071 0 0.0010591)
(0.00899195 0 0.00105923)
(0.00854237 0 0.00105939)
(0.00809249 0 0.00105834)
(0.00764227 0 0.00105997)
(0.00719459 0 0.00105725)
(0.00674747 0 0.00105258)
(0.00630222 0 0.0010462)
(0.00585738 0 0.00104072)
(0.00541687 0 0.00103232)
(0.00497941 0 0.00102455)
(0.00454676 0 0.00101703)
(0.0041182 0 0.00100653)
(0.00369418 0 0.000994902)
(0.00327344 0 0.000976883)
(0.00286203 0 0.000960535)
(0.00245481 0 0.000942625)
(0.00205697 0 0.000927859)
(0.00166634 0 0.000907176)
(0.00128505 0 0.000890551)
(0.000911017 0 0.000862413)
(0.000546556 0 0.000840141)
(0.000190544 0 0.000812468)
(-0.000154125 0 0.000794004)
(-0.000487167 0 0.000770932)
(-0.000810447 0 0.000749832)
(-0.00111982 0 0.000726457)
(-0.0014224 0 0.000692945)
(-0.00171209 0 0.000669735)
(-0.00200122 0 0.00064197)
(-0.00227239 0 0.000629717)
(-0.0025366 0 0.000614959)
(-0.0027789 0 0.000599845)
(-0.00300943 0 0.000554455)
(-0.00324184 0 0.000517838)
(-0.00345402 0 0.000462508)
(-0.00368344 0 0.00048018)
(-0.00393471 0 0.000463686)
(-0.00408511 0 0.000485242)
(-0.0042936 0 0.000522559)
(-0.00438282 0 0.000384402)
(-0.00452732 0 0.000264419)
(-0.00447952 0 0.000256039)
(-0.00455678 0 0.000206165)
(-0.00464479 0 0.000113344)
(-0.00481378 0 6.81664e-05)
(-0.00493533 0 0.000164471)
(-0.00503971 0 0.000208622)
(-0.00510066 0 0.000251805)
(-0.0051766 0 0.000260637)
(-0.00517453 0 0.000152527)
(-0.00523794 0 0.000100688)
(-0.00525287 0 2.62844e-05)
(-0.00547638 0 -1.54871e-05)
(-0.00553136 0 3.65761e-05)
(-0.00556816 0 0.000334361)
(-0.0054688 0 0.000444025)
(-0.00511579 0 5.02553e-05)
(-0.00489337 0 -0.000229228)
(-0.00393443 0 -0.000894338)
(-0.00339842 0 -0.000809437)
(-0.00272669 0 -0.00137103)
(-0.00271589 0 -0.00146963)
(-0.00253936 0 -0.00132307)
(-0.00246178 0 -0.001071)
(-0.0022075 0 -0.000733713)
(-0.00213478 0 -0.000685228)
(-0.00183648 0 -0.000490982)
(-0.00178484 0 -0.000571945)
(-0.00151415 0 -0.000316918)
(-0.00148773 0 -0.000459993)
(-0.00120581 0 -0.000288798)
(-0.00108024 0 -0.000423309)
(-0.00102319 0 -0.000200956)
(-0.000741987 0 -0.000620239)
(-0.000487754 0 4.69771e-05)
(-0.000892088 0 -0.00056869)
(-6.75026e-05 0 -0.000500831)
(-0.00103872 0 0.000201758)
(0.00138947 0 -0.000324414)
(-0.00148717 0 9.05944e-06)
(0.000797869 0 -0.00153804)
(0.000120693 0 0.000636139)
(0.00165999 0 0.000357074)
(0.00198323 0 -0.00160364)
(0.00219084 0 -0.00182059)
(0.00254856 0 -0.00155027)
(0.00289161 0 -0.00122411)
(0.00320385 0 -0.00101864)
(0.0035125 0 -0.000932188)
(0.00381922 0 -0.00086814)
(0.00412463 0 -0.0008084)
(0.00442628 0 -0.000759373)
(0.00472831 0 -0.000752137)
(0.00503267 0 -0.000750237)
(0.0053345 0 -0.00072352)
(0.00563178 0 -0.000716331)
(0.00592812 0 -0.000712281)
(0.00622466 0 -0.000694424)
(0.0065209 0 -0.00070517)
(0.00681783 0 -0.000706458)
(0.00711539 0 -0.000696558)
(0.00741316 0 -0.000682292)
(0.00771076 0 -0.000700387)
(0.00800951 0 -0.000710678)
(0.00830821 0 -0.000697682)
(0.00860523 0 -0.000682578)
(0.00890106 0 -0.000678327)
(0.00919648 0 -0.00068407)
(0.00949116 0 -0.000689252)
(0.00978526 0 -0.000687999)
(0.0100804 0 -0.000690961)
(0.0103757 0 -0.00068522)
(0.0106682 0 -0.00068646)
(0.0109575 0 -0.000670588)
(0.0112482 0 -0.00066394)
(0.0115395 0 -0.000677794)
(0.0118317 0 -0.000694493)
(0.0121246 0 -0.000704705)
(0.0124171 0 -0.000706582)
(0.0127096 0 -0.000703509)
(0.0130029 0 -0.000698527)
(0.0132959 0 -0.000693926)
(0.0135881 0 -0.000691687)
(0.0138802 0 -0.000690959)
(0.0141713 0 -0.000690475)
(0.0144604 0 -0.000679192)
(0.0147471 0 -0.000685969)
(0.0150336 0 -0.000691312)
(0.0153175 0 -0.000677309)
(0.0155996 0 -0.000660526)
(0.0158808 0 -0.000651509)
(0.016161 0 -0.000647804)
(0.0164402 0 -0.000647784)
(0.0167181 0 -0.000649685)
(0.0169945 0 -0.000651086)
(0.0172701 0 -0.000651436)
(0.0175453 0 -0.000650246)
(0.0178199 0 -0.000647091)
(0.0180933 0 -0.000642554)
(0.0183652 0 -0.00063827)
(0.0186358 0 -0.000636146)
(0.0189052 0 -0.0006362)
(0.0191743 0 -0.00063644)
(0.0194425 0 -0.000633701)
(0.0197082 0 -0.000626945)
(0.0199716 0 -0.000620496)
(0.0202346 0 -0.000618454)
(0.0204984 0 -0.00062032)
(0.0207621 0 -0.000622249)
(0.0210233 0 -0.000616278)
(0.0212819 0 -0.000611058)
(0.0215426 0 -0.000606307)