/*--------------------------------*- C++ -*----------------------------------*\
| =========                 |                                                 |
| \\      /  F ield         | OpenFOAM: The Open Source CFD Toolbox           |
|  \\    /   O peration     | Version:  v2006                                 |
|   \\  /    A nd           | Website:  www.openfoam.com                      |
|    \\/     M anipulation  |                                                 |
\*---------------------------------------------------------------------------*/
FoamFile
{
    version     2.0;
    format      ascii;
    class       surfaceScalarField;
    location    "2.5";
    object      alphaPhi0.water;
}
// * * * * * * * * * * * * * * * * * * * * * * * * * * * * * * * * * * * * * //

dimensions      [0 3 -1 0 0 0 0];
oriented        oriented;


internalField   nonuniform List<scalar> 
65390
(
8.1314e-05
7.90239e-07
8.0624e-05
6.88682e-07
7.99732e-05
6.40049e-07
7.92931e-05
6.27439e-07
7.86662e-05
6.32953e-07
7.79741e-05
6.88559e-07
7.7276e-05
7.29663e-07
7.64959e-05
7.74683e-07
7.5657e-05
8.27917e-07
7.48121e-05
8.39384e-07
7.39665e-05
8.50367e-07
7.30572e-05
8.96662e-07
7.20991e-05
9.44734e-07
7.10851e-05
1.01008e-06
7.00623e-05
1.02058e-06
6.90743e-05
9.83323e-07
6.81086e-05
9.63805e-07
6.71573e-05
9.46479e-07
6.61215e-05
1.02998e-06
6.48047e-05
1.27953e-06
6.34745e-05
1.33284e-06
6.23301e-05
1.15918e-06
6.13653e-05
9.64251e-07
6.03318e-05
1.03184e-06
5.90328e-05
1.29018e-06
5.76136e-05
1.40689e-06
5.63402e-05
1.28231e-06
5.5309e-05
1.02968e-06
5.4104e-05
1.20657e-06
5.26262e-05
1.47188e-06
5.13417e-05
1.299e-06
5.0249e-05
1.09441e-06
4.91045e-05
1.1456e-06
4.78178e-05
1.2867e-06
4.62631e-05
1.55307e-06
4.49781e-05
1.29911e-06
4.39647e-05
1.02127e-06
4.28589e-05
1.10741e-06
4.15744e-05
1.28522e-06
4.01413e-05
1.43435e-06
3.86752e-05
1.47933e-06
3.75436e-05
1.1448e-06
3.66433e-05
9.01246e-07
3.5516e-05
1.12614e-06
3.42089e-05
1.31738e-06
3.29937e-05
1.22795e-06
3.1957e-05
1.04231e-06
3.09113e-05
1.04944e-06
2.97303e-05
1.18526e-06
2.8586e-05
1.14878e-06
2.7603e-05
9.85737e-07
2.66916e-05
9.1353e-07
2.56596e-05
1.03416e-06
2.46112e-05
1.05062e-06
2.36668e-05
9.46803e-07
2.27841e-05
8.85188e-07
2.17528e-05
1.03521e-06
2.06425e-05
1.1153e-06
1.95378e-05
1.10897e-06
1.85969e-05
9.44569e-07
1.78015e-05
7.97469e-07
1.6936e-05
8.67338e-07
1.58778e-05
1.05788e-06
1.4872e-05
1.00415e-06
1.40351e-05
8.34441e-07
1.33598e-05
6.72949e-07
1.26661e-05
6.89975e-07
1.18533e-05
8.10825e-07
1.10989e-05
7.52158e-07
1.03949e-05
7.0152e-07
9.63123e-06
7.59553e-07
8.88687e-06
7.4194e-07
8.27424e-06
6.08661e-07
7.7554e-06
5.14981e-07
7.05393e-06
6.97205e-07
6.35084e-06
6.98585e-07
5.49206e-06
8.54571e-07
3.94318e-06
1.54785e-06
2.73368e-06
1.20896e-06
2.33957e-06
3.95924e-07
1.94998e-06
3.905e-07
1.87339e-06
7.69681e-08
1.57738e-06
2.96956e-07
1.44154e-06
1.35986e-07
1.32963e-06
1.12411e-07
1.1363e-06
1.93861e-07
9.70498e-07
1.65984e-07
7.67321e-07
2.03651e-07
6.01645e-07
1.65951e-07
4.25961e-07
1.75767e-07
3.22549e-07
1.03294e-07
2.47643e-07
7.47022e-08
1.73313e-07
7.44266e-08
8.76478e-08
8.57436e-08
4.17017e-08
4.59446e-08
4.1177e-08
4.2408e-10
1.33896e-07
-9.27449e-08
2.67282e-07
-1.3318e-07
4.453e-07
-1.77767e-07
5.64306e-07
-1.18635e-07
5.66427e-07
-1.71437e-09
5.11965e-07
5.48017e-08
4.19754e-07
9.25162e-08
3.70288e-07
4.9791e-08
2.9875e-07
7.18973e-08
2.26447e-07
7.25506e-08
1.91877e-07
3.47522e-08
1.83148e-07
8.86409e-09
1.61159e-07
2.20591e-08
1.30021e-07
3.10825e-08
1.12536e-07
1.73478e-08
9.7982e-08
1.43711e-08
1.10756e-07
-1.30353e-08
1.49222e-07
-3.88503e-08
2.37573e-07
-8.881e-08
3.61164e-07
-1.24089e-07
5.34983e-07
-1.74315e-07
6.63244e-07
-1.28771e-07
7.1865e-07
-5.59697e-08
7.50602e-07
-3.24868e-08
7.37168e-07
1.2894e-08
7.36126e-07
5.30462e-10
7.01873e-07
3.37566e-08
6.75597e-07
2.58085e-08
6.73379e-07
1.80972e-09
6.76617e-07
-3.63447e-09
6.87149e-07
-1.08863e-08
6.84377e-07
2.42793e-09
6.72109e-07
1.19831e-08
6.73642e-07
-1.84913e-09
6.89428e-07
-1.60405e-08
6.89677e-07
-4.96218e-10
6.84748e-07
4.72926e-09
6.81191e-07
3.3959e-09
6.88322e-07
-7.26716e-09
6.96595e-07
-8.37242e-09
6.87686e-07
8.82642e-09
6.78644e-07
8.99797e-09
6.73485e-07
5.16572e-09
6.75075e-07
-1.57365e-09
6.59133e-07
1.60345e-08
6.42716e-07
1.6552e-08
6.28597e-07
1.4311e-08
6.1206e-07
1.67709e-08
5.87782e-07
2.45349e-08
5.63788e-07
2.42617e-08
5.4472e-07
1.93559e-08
5.25299e-07
1.97089e-08
4.91698e-07
3.38863e-08
4.57889e-07
3.40853e-08
4.21389e-07
3.67861e-08
3.81764e-07
3.99235e-08
3.5392e-07
2.81408e-08
3.26179e-07
2.79847e-08
2.82273e-07
4.41604e-08
2.32814e-07
4.97005e-08
1.87177e-07
4.58524e-08
1.48752e-07
3.86047e-08
1.06937e-07
4.19458e-08
5.27951e-08
5.42404e-08
-3.91755e-09
5.67702e-08
-5.42613e-08
5.03602e-08
-1.02318e-07
4.80278e-08
-1.61041e-07
5.86489e-08
-2.26252e-07
6.50852e-08
-2.87506e-07
6.10784e-08
-3.44846e-07
5.71045e-08
-4.08454e-07
6.3328e-08
-4.79045e-07
7.02546e-08
-5.51782e-07
7.2349e-08
-6.19336e-07
6.71208e-08
-6.83748e-07
6.39263e-08
-7.56707e-07
7.24602e-08
-8.34602e-07
7.73642e-08
-9.10308e-07
7.51659e-08
-9.83734e-07
7.28793e-08
-1.05682e-06
7.2526e-08
-1.13393e-06
7.65778e-08
-1.21194e-06
7.74781e-08
-1.29041e-06
7.79405e-08
-1.36936e-06
7.84604e-08
-1.44595e-06
7.60582e-08
-1.52332e-06
7.69073e-08
-1.60331e-06
7.95436e-08
-1.68271e-06
7.8992e-08
-1.75953e-06
7.64369e-08
-1.83381e-06
7.38791e-08
-1.91191e-06
7.78116e-08
-1.99067e-06
7.85236e-08
-2.06774e-06
7.68294e-08
-2.14129e-06
7.32736e-08
-2.21666e-06
7.51332e-08
-2.29191e-06
7.50826e-08
-2.36552e-06
7.34479e-08
-2.43778e-06
7.21243e-08
-2.50837e-06
7.04562e-08
-2.57901e-06
7.0543e-08
-2.64897e-06
6.98182e-08
-2.71623e-06
6.71544e-08
-2.78039e-06
6.40655e-08
-2.8454e-06
6.49579e-08
-2.9095e-06
6.40443e-08
-2.97249e-06
6.29458e-08
-3.03279e-06
6.02724e-08
-3.09126e-06
5.8566e-08
-3.14619e-06
5.48063e-08
-3.20017e-06
5.3986e-08
-3.25545e-06
5.52889e-08
-3.30744e-06
5.20075e-08
-3.35647e-06
4.90426e-08
-3.40246e-06
4.59991e-08
-3.4495e-06
4.70916e-08
-3.49337e-06
4.38995e-08
-3.5351e-06
4.1738e-08
-3.57434e-06
3.92568e-08
-3.61037e-06
3.59812e-08
-3.64665e-06
3.63488e-08
-3.68046e-06
3.38178e-08
-3.71211e-06
3.16458e-08
-3.74246e-06
3.03762e-08
-3.76906e-06
2.65086e-08
-3.79182e-06
2.27728e-08
-3.81491e-06
2.30781e-08
-3.83617e-06
2.13529e-08
-3.85561e-06
1.94658e-08
-3.87236e-06
1.67494e-08
-3.88715e-06
1.48077e-08
-3.89961e-06
1.2481e-08
-3.90867e-06
9.07489e-09
-3.91738e-06
8.7557e-09
-3.92427e-06
6.90317e-09
-3.92941e-06
5.14413e-09
-3.93222e-06
2.83643e-09
-3.9329e-06
7.08216e-10
-3.93094e-06
-2.02065e-09
-3.92841e-06
-2.39483e-09
-3.9248e-06
-3.4961e-09
-3.91953e-06
-5.30292e-09
-3.91163e-06
-7.8911e-09
-3.90277e-06
-8.86066e-09
-3.89247e-06
-1.02679e-08
-3.8807e-06
-1.174e-08
-3.86764e-06
-1.30491e-08
-3.8532e-06
-1.44289e-08
-3.83747e-06
-1.57251e-08
-3.82036e-06
-1.70946e-08
-3.80302e-06
-1.73028e-08
-3.78447e-06
-1.85256e-08
-3.7642e-06
-2.02857e-08
-3.74319e-06
-2.09923e-08
-3.72144e-06
-2.17313e-08
-3.69886e-06
-2.25594e-08
-3.67557e-06
-2.32883e-08
-3.65165e-06
-2.39182e-08
-3.62724e-06
-2.43531e-08
-3.60222e-06
-2.49805e-08
-3.57611e-06
-2.61219e-08
-3.54901e-06
-2.70931e-08
-3.52237e-06
-2.66273e-08
-3.49506e-06
-2.72847e-08
-3.46718e-06
-2.78429e-08
-3.43854e-06
-2.86316e-08
-3.41005e-06
-2.84902e-08
-3.38137e-06
-2.86738e-08
-3.35236e-06
-2.90057e-08
-3.32313e-06
-2.92214e-08
-3.29355e-06
-2.95511e-08
-3.26367e-06
-2.98555e-08
-3.23351e-06
-3.01533e-08
-3.20309e-06
-3.04115e-08
-3.17282e-06
-3.02538e-08
-3.14256e-06
-3.0241e-08
-3.11238e-06
-3.01668e-08
-3.08213e-06
-3.02375e-08
-3.05186e-06
-3.02603e-08
-3.02149e-06
-3.03533e-08
-2.99107e-06
-3.04089e-08
-2.96068e-06
-3.03697e-08
-2.93039e-06
-3.02771e-08
-2.90021e-06
-3.01453e-08
-2.87015e-06
-3.00271e-08
-2.84015e-06
-2.99678e-08
-2.81019e-06
-2.99389e-08
-2.78026e-06
-2.99183e-08
-2.75036e-06
-2.9882e-08
-2.72056e-06
-2.97753e-08
-2.69092e-06
-2.96164e-08
-2.66142e-06
-2.94829e-08
-2.63199e-06
-2.94096e-08
-2.60266e-06
-2.93197e-08
-2.57344e-06
-2.91987e-08
-2.54434e-06
-2.90885e-08
-2.51541e-06
-2.89238e-08
-2.48671e-06
-2.86865e-08
-2.45822e-06
-2.84763e-08
-2.42995e-06
-2.82705e-08
-2.40186e-06
-2.80784e-08
-2.37402e-06
-2.78335e-08
-2.34642e-06
-2.75939e-08
-2.31906e-06
-2.73615e-08
-2.29193e-06
-2.71286e-08
-2.26504e-06
-2.68856e-08
-2.23839e-06
-2.665e-08
-2.21198e-06
-2.6415e-08
-2.18579e-06
-2.61941e-08
-2.1598e-06
-2.60008e-08
-2.13401e-06
-2.57918e-08
-2.10846e-06
-2.55642e-08
-2.08311e-06
-2.53524e-08
-2.05797e-06
-2.51554e-08
-2.03304e-06
-2.49424e-08
-2.00833e-06
-2.47211e-08
-1.98384e-06
-2.45004e-08
-1.95957e-06
-2.42757e-08
-1.93553e-06
-2.40493e-08
-1.91172e-06
-2.38265e-08
-1.88813e-06
-2.36023e-08
-1.86476e-06
-2.33741e-08
-1.84162e-06
-2.31508e-08
-1.8187e-06
-2.29318e-08
-1.79599e-06
-2.27155e-08
-1.7735e-06
-2.24991e-08
-1.75123e-06
-2.22805e-08
-1.72917e-06
-2.20685e-08
-1.70732e-06
-2.18582e-08
-1.68568e-06
-2.16459e-08
-1.66426e-06
-2.14281e-08
-1.64306e-06
-2.12067e-08
-1.62207e-06
-2.09942e-08
-1.60128e-06
-2.07981e-08
-1.58067e-06
-2.06169e-08
-1.56023e-06
-2.04471e-08
-1.53995e-06
-2.02839e-08
-1.51982e-06
-2.01339e-08
-1.49982e-06
-2.00076e-08
-1.47993e-06
-1.98865e-08
-1.46018e-06
-1.97591e-08
-1.44056e-06
-1.9624e-08
-1.42109e-06
-1.94814e-08
-1.40176e-06
-1.93391e-08
-1.38258e-06
-1.91964e-08
-1.36354e-06
-1.9048e-08
-1.34464e-06
-1.89013e-08
-1.32588e-06
-1.87617e-08
-1.30725e-06
-1.86343e-08
-1.28874e-06
-1.85145e-08
-1.27035e-06
-1.84033e-08
-1.25207e-06
-1.82996e-08
-1.23389e-06
-1.82007e-08
-1.21581e-06
-1.81023e-08
-1.19783e-06
-1.79967e-08
-1.17997e-06
-1.78821e-08
-1.16223e-06
-1.77591e-08
-1.14461e-06
-1.76303e-08
-1.12713e-06
-1.74965e-08
-1.10977e-06
-1.73645e-08
-1.09255e-06
-1.72413e-08
-1.07543e-06
-1.71273e-08
-1.05843e-06
-1.70185e-08
-1.04154e-06
-1.69132e-08
-1.02475e-06
-1.68115e-08
-1.00807e-06
-1.67071e-08
-9.91499e-07
-1.65914e-08
-9.75062e-07
-1.64603e-08
-9.58766e-07
-1.63184e-08
-9.42615e-07
-1.61741e-08
-9.26606e-07
-1.60329e-08
-9.10731e-07
-1.58972e-08
-8.94985e-07
-1.57678e-08
-8.79356e-07
-1.56498e-08
-8.63838e-07
-1.55374e-08
-8.48431e-07
-1.5425e-08
-8.33143e-07
-1.53059e-08
-8.17984e-07
-1.51765e-08
-8.02961e-07
-1.50393e-08
-7.8808e-07
-1.48979e-08
-7.73342e-07
-1.47534e-08
-7.58752e-07
-1.46049e-08
-7.4431e-07
-1.44557e-08
-7.30009e-07
-1.43138e-08
-7.15839e-07
-1.41813e-08
-7.018e-07
-1.405e-08
-6.87901e-07
-1.39087e-08
-6.74158e-07
-1.3752e-08
-6.60585e-07
-1.3581e-08
-6.47191e-07
-1.34018e-08
-6.33973e-07
-1.32236e-08
-6.20924e-07
-1.30545e-08
-6.08034e-07
-1.28961e-08
-5.95294e-07
-1.2746e-08
-5.827e-07
-1.25999e-08
-5.70258e-07
-1.24494e-08
-5.57977e-07
-1.22874e-08
-5.45871e-07
-1.21125e-08
-5.33948e-07
-1.19287e-08
-5.22211e-07
-1.17433e-08
-5.10653e-07
-1.15628e-08
-4.99262e-07
-1.13966e-08
-4.8802e-07
-1.12479e-08
-4.76915e-07
-1.11098e-08
-4.65952e-07
-1.09676e-08
-4.55146e-07
-1.08115e-08
-4.44506e-07
-1.0644e-08
-4.34038e-07
-1.04742e-08
-4.2374e-07
-1.03044e-08
-4.1361e-07
-1.01367e-08
-4.03637e-07
-9.9795e-09
-3.93812e-07
-9.83127e-09
-3.8414e-07
-9.67674e-09
-3.74638e-07
-9.50734e-09
-3.65309e-07
-9.33379e-09
-3.56148e-07
-9.16437e-09
-3.4714e-07
-9.01166e-09
-3.38279e-07
-8.8636e-09
-3.29553e-07
-8.72731e-09
-3.2095e-07
-8.60285e-09
-3.12502e-07
-8.44616e-09
-3.04167e-07
-8.33298e-09
-2.95975e-07
-8.18721e-09
-2.87999e-07
-7.97077e-09
-2.80125e-07
-7.86732e-09
-2.72342e-07
-7.77431e-09
-2.64837e-07
-7.49411e-09
-2.57081e-07
-7.74252e-09
-2.49487e-07
-7.58022e-09
-2.42675e-07
-6.79889e-09
-2.35594e-07
-7.06616e-09
-2.28922e-07
-6.65861e-09
-2.23188e-07
-5.72017e-09
-2.18739e-07
-4.43515e-09
-2.14418e-07
-4.30905e-09
-2.09079e-07
-5.3274e-09
-2.03656e-07
-5.41228e-09
-1.98014e-07
-5.6324e-09
-1.92368e-07
-5.63812e-09
-1.8677e-07
-5.59066e-09
-1.81252e-07
-5.51218e-09
-1.75789e-07
-5.45678e-09
-1.70393e-07
-5.3881e-09
-1.65e-07
-5.38494e-09
-1.59757e-07
-5.23373e-09
-1.54587e-07
-5.1583e-09
-1.49496e-07
-5.07668e-09
-1.44639e-07
-4.83901e-09
-1.39723e-07
-4.8922e-09
-1.34992e-07
-4.70385e-09
-1.30512e-07
-4.44648e-09
-1.26323e-07
-4.14857e-09
-1.22193e-07
-4.08253e-09
-1.17857e-07
-4.27992e-09
-1.1367e-07
-4.12366e-09
-1.09527e-07
-4.07018e-09
-1.05541e-07
-3.90545e-09
-1.01711e-07
-3.74031e-09
-9.80702e-08
-3.54033e-09
-9.4532e-08
-3.42629e-09
-9.07994e-08
-3.60856e-09
-8.73145e-08
-3.35091e-09
-8.40813e-08
-3.08368e-09
-8.07176e-08
-3.19776e-09
-7.7446e-08
-3.09028e-09
-7.4968e-08
-2.27749e-09
-7.04065e-08
-4.35956e-09
-6.64429e-08
-3.78114e-09
-6.48944e-08
-1.44504e-09
-6.11677e-08
-3.86108e-09
-6.2231e-08
4.34581e-10
-6.53023e-08
1.21555e-09
-8.03393e-08
1.2131e-08
-9.06385e-08
5.02671e-09
-1.02798e-07
2.79541e-09
-1.09033e-07
-2.28968e-09
-1.12536e-07
-4.18777e-09
-1.14312e-07
-5.13718e-09
-1.15018e-07
-5.49066e-09
-1.15145e-07
-5.42023e-09
-1.14942e-07
-5.16075e-09
-1.14508e-07
-4.85868e-09
-1.13922e-07
-4.52815e-09
-1.13241e-07
-4.18969e-09
-1.12436e-07
-3.92354e-09
-1.11465e-07
-3.74276e-09
-1.10322e-07
-3.60801e-09
-1.0908e-07
-3.43814e-09
-1.07793e-07
-3.25224e-09
-1.06427e-07
-3.13451e-09
-1.04956e-07
-3.07535e-09
-1.03418e-07
-3.00957e-09
-1.01805e-07
-2.97924e-09
-1.00144e-07
-2.94465e-09
-9.84729e-08
-2.89469e-09
-9.68187e-08
-2.83284e-09
-9.51873e-08
-2.77752e-09
-9.36895e-08
-2.61941e-09
-9.22341e-08
-2.55612e-09
-9.07721e-08
-2.54164e-09
-8.92827e-08
-2.54394e-09
-8.77504e-08
-2.55497e-09
-8.61564e-08
-2.5757e-09
-8.44768e-08
-2.60955e-09
-8.26826e-08
-2.66074e-09
-8.07511e-08
-2.7235e-09
-7.8674e-08
-2.78389e-09
-7.64596e-08
-2.82709e-09
-7.41372e-08
-2.83409e-09
-7.17467e-08
-2.79727e-09
-6.93261e-08
-2.72106e-09
-6.69064e-08
-2.61602e-09
-6.45098e-08
-2.4936e-09
-6.21583e-08
-2.35726e-09
-5.98783e-08
-2.20538e-09
-5.77005e-08
-2.03548e-09
-5.565e-08
-1.85507e-09
-5.37306e-08
-1.68622e-09
-5.192e-08
-1.55558e-09
-5.01742e-08
-1.48434e-09
-4.84412e-08
-1.47977e-09
-4.66733e-08
-1.53635e-09
-4.48315e-08
-1.64327e-09
-4.28874e-08
-1.78777e-09
-4.08369e-08
-1.94315e-09
-3.87297e-08
-2.05283e-09
-3.66829e-08
-2.04724e-09
-3.48258e-08
-1.91144e-09
-3.31905e-08
-1.74069e-09
-3.1661e-08
-1.68104e-09
-3.00198e-08
-1.8321e-09
-2.81532e-08
-2.08924e-09
-2.62398e-08
-2.15914e-09
-2.4601e-08
-1.89876e-09
-2.3454e-08
-1.41242e-09
-2.2594e-08
-1.12217e-09
-2.16082e-08
-1.23724e-09
-2.0235e-08
-1.60689e-09
-1.88038e-08
-1.64135e-09
-1.77363e-08
-1.24925e-09
-1.70127e-08
-8.73641e-10
-1.60598e-08
-1.06916e-09
-1.45065e-08
-1.63482e-09
-1.28279e-08
-1.72586e-09
-1.14451e-08
-1.39698e-09
-1.00847e-08
-1.34337e-09
-8.22726e-09
-1.81181e-09
-6.15605e-09
-2.00005e-09
-4.63705e-09
-1.42679e-09
-3.54888e-09
-9.80277e-10
-2.32261e-09
-1.10846e-09
-1.36764e-09
-8.34436e-10
-2.77242e-10
-9.80996e-10
7.74887e-10
8.13756e-05
1.59133e-06
8.06315e-05
1.43393e-06
7.99387e-05
1.32973e-06
7.9281e-05
1.2943e-06
7.8617e-05
1.30149e-06
7.79114e-05
1.39486e-06
7.71567e-05
1.4857e-06
7.63598e-05
1.57222e-06
7.55298e-05
1.65703e-06
7.46772e-05
1.69205e-06
7.37883e-05
1.74044e-06
7.28669e-05
1.81978e-06
7.19187e-05
1.89582e-06
7.09495e-05
1.98232e-06
6.99518e-05
2.01944e-06
6.89154e-05
2.02456e-06
6.78581e-05
2.0295e-06
6.68037e-05
2.00602e-06
6.57063e-05
2.12458e-06
6.45672e-05
2.40952e-06
6.34263e-05
2.47557e-06
6.23212e-05
2.28395e-06
6.12084e-05
2.08987e-06
6.00054e-05
2.23584e-06
5.87854e-05
2.49462e-06
5.75537e-05
2.63574e-06
5.63974e-05
2.44149e-06
5.52549e-05
2.19446e-06
5.40112e-05
2.44571e-06
5.26197e-05
2.8587e-06
5.11989e-05
2.72995e-06
4.9933e-05
2.36135e-06
4.87793e-05
2.27247e-06
4.76859e-05
2.37848e-06
4.64942e-05
2.74635e-06
4.51209e-05
2.68369e-06
4.38302e-05
2.32109e-06
4.26458e-05
2.28362e-06
4.15012e-05
2.41517e-06
4.03258e-05
2.6127e-06
3.89595e-05
2.84266e-06
3.77506e-05
2.37322e-06
3.66361e-05
2.01854e-06
3.55814e-05
2.16929e-06
3.44557e-05
2.44536e-06
3.32099e-05
2.47541e-06
3.19826e-05
2.27535e-06
3.08191e-05
2.20912e-06
2.97091e-05
2.29143e-06
2.86166e-05
2.24089e-06
2.75643e-05
2.04584e-06
2.64944e-05
1.98342e-06
2.54224e-05
2.09867e-06
2.4383e-05
2.09653e-06
2.34361e-05
1.894e-06
2.25306e-05
1.7881e-06
2.15873e-05
1.97752e-06
2.05195e-05
2.18373e-06
1.94483e-05
2.18156e-06
1.85748e-05
1.82748e-06
1.77315e-05
1.64032e-06
1.67993e-05
1.80131e-06
1.57669e-05
2.09275e-06
1.47848e-05
1.99076e-06
1.40081e-05
1.62266e-06
1.3237e-05
1.45244e-06
1.24723e-05
1.45788e-06
1.17546e-05
1.535e-06
1.10069e-05
1.50705e-06
1.02141e-05
1.50275e-06
9.47223e-06
1.50839e-06
8.84713e-06
1.37526e-06
8.22289e-06
1.2441e-06
7.60004e-06
1.14605e-06
7.01568e-06
1.28922e-06
6.44327e-06
1.2804e-06
5.98091e-06
1.32531e-06
6.03714e-06
1.49521e-06
5.80288e-06
1.44546e-06
4.85357e-06
1.34424e-06
3.32247e-06
1.92158e-06
2.0442e-06
1.35554e-06
1.69889e-06
6.4193e-07
1.35542e-06
4.79223e-07
1.36165e-06
1.06444e-07
1.14914e-06
4.06537e-07
9.13361e-07
4.01387e-07
7.02536e-07
4.1462e-07
5.66349e-07
3.02635e-07
4.06581e-07
3.35917e-07
3.01077e-07
2.09021e-07
2.01802e-07
1.74466e-07
1.04686e-07
1.71725e-07
1.57152e-08
1.7459e-07
-6.37685e-08
1.25328e-07
-1.31835e-07
6.82638e-08
-1.99699e-07
-2.49967e-08
-2.60708e-07
-7.21953e-08
-3.26664e-07
-1.1214e-07
-2.84167e-07
-1.61739e-07
-1.50972e-07
-1.35443e-07
3.96698e-08
-1.36159e-07
1.85646e-07
-5.37072e-08
2.36679e-07
-1.58348e-09
2.74706e-07
3.34193e-08
2.59299e-07
8.76591e-08
2.28928e-07
6.49779e-08
1.91193e-07
4.64456e-08
1.27997e-07
8.5103e-08
7.48581e-08
8.41521e-08
6.88581e-08
2.3243e-08
7.29494e-08
1.0151e-08
8.09253e-08
-2.12062e-08
8.70577e-08
-4.52097e-08
8.65721e-08
-8.8589e-08
9.68484e-08
-1.34657e-07
9.32954e-08
-1.71113e-07
1.40404e-07
-1.76263e-07
2.47323e-07
-1.63363e-07
4.24557e-07
-2.10345e-07
5.81784e-07
-1.45039e-07
6.47718e-07
-6.60081e-08
6.93545e-07
-1.27633e-08
7.11605e-07
7.03819e-09
7.21607e-07
-8.88201e-09
6.92223e-07
2.5003e-08
6.71357e-07
9.09874e-09
6.76359e-07
-3.3155e-09
6.81048e-07
6.55599e-09
6.86722e-07
-8.12488e-09
6.92219e-07
-2.22702e-08
6.91422e-07
-3.45937e-10
6.89548e-07
6.1543e-09
6.90933e-07
1.57633e-09
6.94569e-07
-1.12689e-08
6.95004e-07
-9.22747e-09
6.87526e-07
1.60427e-08
6.84866e-07
1.14728e-08
6.81981e-07
8.02048e-09
6.74964e-07
5.39293e-09
6.59049e-07
3.2029e-08
6.48745e-07
2.70177e-08
6.38125e-07
2.51679e-08
6.17962e-07
3.72557e-08
5.94908e-07
4.79026e-08
5.76882e-07
4.2654e-08
5.58158e-07
3.84956e-08
5.30769e-07
4.75425e-08
4.96487e-07
6.85595e-08
4.68096e-07
6.29256e-08
4.37495e-07
6.78659e-08
4.01272e-07
7.66938e-08
3.67986e-07
6.19571e-08
3.32989e-07
6.34548e-08
2.90775e-07
8.68808e-08
2.45596e-07
9.53713e-08
2.03443e-07
8.85009e-08
1.61835e-07
8.06512e-08
1.14956e-07
8.92273e-08
6.24695e-08
1.07071e-07
7.40849e-09
1.12118e-07
-4.47053e-08
1.02701e-07
-9.57115e-08
9.91815e-08
-1.53096e-07
1.16092e-07
-2.17094e-07
1.29041e-07
-2.804e-07
1.24215e-07
-3.41063e-07
1.17529e-07
-4.03261e-07
1.25179e-07
-4.72024e-07
1.38546e-07
-5.44513e-07
1.44275e-07
-6.12649e-07
1.34551e-07
-6.79396e-07
1.2998e-07
-7.53098e-07
1.45341e-07
-8.30314e-07
1.53808e-07
-9.03199e-07
1.47186e-07
-9.77182e-07
1.45864e-07
-1.05437e-06
1.48858e-07
-1.13118e-06
1.52377e-07
-1.20718e-06
1.5268e-07
-1.28381e-06
1.53779e-07
-1.36229e-06
1.5596e-07
-1.44109e-06
1.53934e-07
-1.5207e-06
1.55706e-07
-1.6006e-06
1.58745e-07
-1.67934e-06
1.56996e-07
-1.75643e-06
1.52824e-07
-1.83245e-06
1.49395e-07
-1.90967e-06
1.54501e-07
-1.98722e-06
1.5555e-07
-2.06451e-06
1.53619e-07
-2.14111e-06
1.49566e-07
-2.21745e-06
1.51026e-07
-2.29247e-06
1.49912e-07
-2.3655e-06
1.46261e-07
-2.43671e-06
1.4316e-07
-2.50804e-06
1.41477e-07
-2.58004e-06
1.42401e-07
-2.65037e-06
1.40006e-07
-2.71746e-06
1.34167e-07
-2.78299e-06
1.29391e-07
-2.84753e-06
1.29423e-07
-2.91149e-06
1.2813e-07
-2.97502e-06
1.26599e-07
-3.03453e-06
1.19827e-07
-3.09226e-06
1.1619e-07
-3.14875e-06
1.11135e-07
-3.20489e-06
1.10307e-07
-3.25989e-06
1.1043e-07
-3.31061e-06
1.0288e-07
-3.35958e-06
9.80279e-08
-3.40758e-06
9.39398e-08
-3.4548e-06
9.44126e-08
-3.49787e-06
8.70832e-08
-3.53907e-06
8.30186e-08
-3.57859e-06
7.86754e-08
-3.61578e-06
7.30122e-08
-3.65132e-06
7.19259e-08
-3.68464e-06
6.70998e-08
-3.71617e-06
6.32196e-08
-3.74622e-06
6.05012e-08
-3.77292e-06
5.28226e-08
-3.79761e-06
4.74066e-08
-3.82011e-06
4.55653e-08
-3.8408e-06
4.19524e-08
-3.86035e-06
3.89141e-08
-3.87678e-06
3.31173e-08
-3.89117e-06
2.9134e-08
-3.90344e-06
2.47019e-08
-3.91374e-06
1.92312e-08
-3.92201e-06
1.70588e-08
-3.92864e-06
1.35065e-08
-3.9337e-06
1.02297e-08
-3.93608e-06
5.19115e-09
-3.93656e-06
1.16486e-09
-3.93518e-06
-3.47119e-09
-3.93217e-06
-5.43072e-09
-3.92742e-06
-8.22745e-09
-3.92196e-06
-1.08019e-08
-3.91557e-06
-1.43774e-08
-3.90706e-06
-1.73869e-08
-3.89621e-06
-2.10839e-08
-3.88405e-06
-2.39215e-08
-3.87094e-06
-2.61701e-08
-3.85635e-06
-2.8999e-08
-3.84018e-06
-3.19152e-08
-3.82298e-06
-3.43479e-08
-3.80563e-06
-3.46347e-08
-3.78711e-06
-3.70393e-08
-3.76712e-06
-4.03341e-08
-3.74577e-06
-4.23259e-08
-3.7238e-06
-4.36994e-08
-3.70095e-06
-4.53944e-08
-3.67735e-06
-4.68651e-08
-3.65331e-06
-4.80036e-08
-3.62843e-06
-4.92271e-08
-3.60275e-06
-5.06564e-08
-3.57652e-06
-5.23494e-08
-3.55025e-06
-5.34468e-08
-3.52378e-06
-5.30602e-08
-3.49624e-06
-5.48086e-08
-3.46806e-06
-5.59759e-08
-3.43963e-06
-5.71111e-08
-3.41101e-06
-5.70959e-08
-3.3822e-06
-5.74719e-08
-3.35301e-06
-5.81778e-08
-3.3236e-06
-5.86123e-08
-3.29395e-06
-5.9116e-08
-3.2641e-06
-5.97111e-08
-3.23409e-06
-6.02236e-08
-3.20387e-06
-6.05941e-08
-3.17358e-06
-6.05175e-08
-3.14325e-06
-6.05428e-08
-3.113e-06
-6.0376e-08
-3.08273e-06
-6.04737e-08
-3.05253e-06
-6.04207e-08
-3.02226e-06
-6.06014e-08
-2.99189e-06
-6.07763e-08
-2.9614e-06
-6.07721e-08
-2.93098e-06
-6.06622e-08
-2.90059e-06
-6.04957e-08
-2.87031e-06
-6.02822e-08
-2.84023e-06
-5.9976e-08
-2.81022e-06
-5.99144e-08
-2.78021e-06
-5.98893e-08
-2.7503e-06
-5.97654e-08
-2.72053e-06
-5.95455e-08
-2.69084e-06
-5.92719e-08
-2.66128e-06
-5.90179e-08
-2.63181e-06
-5.88154e-08
-2.60252e-06
-5.85859e-08
-2.57338e-06
-5.83252e-08
-2.54439e-06
-5.80813e-08
-2.51554e-06
-5.77537e-08
-2.48687e-06
-5.73398e-08
-2.45839e-06
-5.69473e-08
-2.43008e-06
-5.65408e-08
-2.40203e-06
-5.61327e-08
-2.37419e-06
-5.56683e-08
-2.34657e-06
-5.52142e-08
-2.31917e-06
-5.47571e-08
-2.29199e-06
-5.42992e-08
-2.26504e-06
-5.38349e-08
-2.23831e-06
-5.33716e-08
-2.21181e-06
-5.29101e-08
-2.18554e-06
-5.24667e-08
-2.1595e-06
-5.20512e-08
-2.13368e-06
-5.16191e-08
-2.10808e-06
-5.11687e-08
-2.08271e-06
-5.07308e-08
-2.05756e-06
-5.03075e-08
-2.03264e-06
-4.98696e-08
-2.00795e-06
-4.94239e-08
-1.98348e-06
-4.89785e-08
-1.95923e-06
-4.85267e-08
-1.93522e-06
-4.80716e-08
-1.91143e-06
-4.76217e-08
-1.88786e-06
-4.71716e-08
-1.86452e-06
-4.67182e-08
-1.8414e-06
-4.62717e-08
-1.8185e-06
-4.5832e-08
-1.79582e-06
-4.53968e-08
-1.77336e-06
-4.49591e-08
-1.75112e-06
-4.45164e-08
-1.72911e-06
-4.40823e-08
-1.70731e-06
-4.36551e-08
-1.68572e-06
-4.32331e-08
-1.66433e-06
-4.28109e-08
-1.64314e-06
-4.23875e-08
-1.62215e-06
-4.19773e-08
-1.60135e-06
-4.15939e-08
-1.58072e-06
-4.12379e-08
-1.56025e-06
-4.09029e-08
-1.53995e-06
-4.05785e-08
-1.51981e-06
-4.02707e-08
-1.49982e-06
-3.99952e-08
-1.47996e-06
-3.9733e-08
-1.46025e-06
-3.94658e-08
-1.44068e-06
-3.91855e-08
-1.42126e-06
-3.88942e-08
-1.40198e-06
-3.86103e-08
-1.38283e-06
-3.83364e-08
-1.36382e-06
-3.80635e-08
-1.34493e-06
-3.77934e-08
-1.32617e-06
-3.75301e-08
-1.30753e-06
-3.72809e-08
-1.28901e-06
-3.70404e-08
-1.27061e-06
-3.68087e-08
-1.25232e-06
-3.65871e-08
-1.23415e-06
-3.63743e-08
-1.21609e-06
-3.61643e-08
-1.19815e-06
-3.59463e-08
-1.18033e-06
-3.57199e-08
-1.16261e-06
-3.54877e-08
-1.145e-06
-3.52501e-08
-1.12751e-06
-3.50059e-08
-1.11013e-06
-3.4763e-08
-1.09286e-06
-3.45293e-08
-1.0757e-06
-3.43027e-08
-1.05866e-06
-3.40751e-08
-1.04175e-06
-3.38455e-08
-1.02495e-06
-3.36194e-08
-1.00828e-06
-3.33934e-08
-9.91722e-07
-3.31566e-08
-9.75291e-07
-3.29012e-08
-9.58987e-07
-3.26319e-08
-9.42811e-07
-3.23593e-08
-9.26761e-07
-3.20912e-08
-9.10837e-07
-3.18305e-08
-8.95037e-07
-3.15774e-08
-8.79361e-07
-3.13366e-08
-8.63809e-07
-3.11016e-08
-8.48383e-07
-3.08652e-08
-8.33085e-07
-3.06175e-08
-8.17923e-07
-3.03533e-08
-8.02901e-07
-3.00764e-08
-7.88017e-07
-2.97956e-08
-7.7327e-07
-2.9514e-08
-7.5866e-07
-2.9228e-08
-7.44192e-07
-2.89368e-08
-7.29871e-07
-2.86486e-08
-7.15698e-07
-2.83683e-08
-7.01676e-07
-2.80848e-08
-6.87813e-07
-2.77846e-08
-6.74113e-07
-2.74643e-08
-6.60576e-07
-2.71297e-08
-6.47197e-07
-2.67919e-08
-6.33972e-07
-2.64597e-08
-6.20895e-07
-2.61406e-08
-6.07967e-07
-2.58316e-08
-5.95195e-07
-2.55251e-08
-5.82588e-07
-2.5214e-08
-5.70151e-07
-2.4891e-08
-5.57891e-07
-2.45529e-08
-5.45803e-07
-2.42041e-08
-5.33884e-07
-2.3852e-08
-5.22127e-07
-2.35035e-08
-5.1053e-07
-2.31641e-08
-4.9909e-07
-2.28396e-08
-4.8781e-07
-2.25304e-08
-4.76694e-07
-2.22289e-08
-4.65743e-07
-2.19211e-08
-4.54958e-07
-2.1599e-08
-4.44333e-07
-2.12701e-08
-4.33862e-07
-2.09463e-08
-4.23541e-07
-2.06244e-08
-4.13378e-07
-2.02987e-08
-4.03385e-07
-1.99711e-08
-3.93562e-07
-1.96526e-08
-3.83915e-07
-1.93233e-08
-3.74443e-07
-1.89802e-08
-3.65129e-07
-1.86486e-08
-3.55971e-07
-1.83248e-08
-3.46937e-07
-1.80493e-08
-3.38057e-07
-1.77485e-08
-3.29288e-07
-1.7503e-08
-3.2068e-07
-1.72184e-08
-3.12303e-07
-1.68341e-08
-3.04074e-07
-1.65752e-08
-2.95899e-07
-1.63773e-08
-2.87939e-07
-1.59471e-08
-2.7968e-07
-1.61457e-08
-2.71638e-07
-1.58365e-08
-2.64481e-07
-1.46748e-08
-2.57448e-07
-1.47988e-08
-2.50746e-07
-1.43073e-08
-2.44621e-07
-1.29489e-08
-2.40035e-07
-1.16766e-08
-2.35444e-07
-1.12734e-08
-2.29567e-07
-1.1619e-08
-2.23132e-07
-1.08909e-08
-2.16506e-07
-1.09527e-08
-2.10406e-07
-1.14439e-08
-2.04326e-07
-1.15059e-08
-1.98446e-07
-1.15246e-08
-1.9264e-07
-1.14546e-08
-1.86944e-07
-1.12946e-08
-1.81342e-07
-1.11228e-08
-1.75838e-07
-1.09699e-08
-1.70323e-07
-1.09132e-08
-1.64884e-07
-1.08348e-08
-1.59735e-07
-1.03974e-08
-1.54703e-07
-1.02085e-08
-1.49775e-07
-1.00284e-08
-1.45026e-07
-9.61854e-09
-1.40624e-07
-9.33352e-09
-1.36304e-07
-9.07442e-09
-1.31738e-07
-9.07379e-09
-1.27105e-07
-8.85482e-09
-1.22507e-07
-8.76766e-09
-1.18151e-07
-8.73638e-09
-1.13788e-07
-8.60142e-09
-1.09565e-07
-8.42282e-09
-1.05203e-07
-8.41469e-09
-1.01274e-07
-7.83424e-09
-9.76471e-08
-7.35159e-09
-9.4327e-08
-6.94994e-09
-9.11681e-08
-6.99147e-09
-8.76512e-08
-7.11645e-09
-8.47349e-08
-6.27489e-09
-7.93923e-08
-8.83923e-09
-7.49372e-08
-7.86219e-09
-7.30524e-08
-4.46703e-09
-7.11489e-08
-6.48598e-09
-7.15721e-08
-3.35439e-09
-7.50102e-08
2.57565e-09
-9.32119e-08
1.56411e-08
-1.13146e-07
2.39224e-08
-1.23499e-07
1.86263e-08
-1.26106e-07
2.41235e-08
-1.23009e-07
1.60289e-08
-1.19305e-07
1.25436e-08
-1.18344e-07
9.32041e-09
-1.17926e-07
6.97693e-09
-1.17642e-07
5.13658e-09
-1.17501e-07
3.91982e-09
-1.17157e-07
2.83031e-09
-1.16595e-07
1.97903e-09
-1.15801e-07
1.22962e-09
-1.14848e-07
6.54674e-10
-1.13807e-07
2.31009e-10
-1.12705e-07
-1.67697e-10
-1.11524e-07
-6.00853e-10
-1.10317e-07
-9.59216e-10
-1.09087e-07
-1.21824e-09
-1.07796e-07
-1.43894e-09
-1.06434e-07
-1.68181e-09
-1.04976e-07
-1.95654e-09
-1.03382e-07
-2.21788e-09
-1.017e-07
-2.42525e-09
-9.99756e-08
-2.54965e-09
-9.82535e-08
-2.58421e-09
-9.65675e-08
-2.55199e-09
-9.49384e-08
-2.49075e-09
-9.3258e-08
-2.42712e-09
-9.15714e-08
-2.4113e-09
-8.98772e-08
-2.4499e-09
-8.81566e-08
-2.53318e-09
-8.63951e-08
-2.6527e-09
-8.45846e-08
-2.80607e-09
-8.27167e-08
-2.99836e-09
-8.0788e-08
-3.22936e-09
-7.87998e-08
-3.48743e-09
-7.67571e-08
-3.7531e-09
-7.46675e-08
-4.00577e-09
-7.25346e-08
-4.22647e-09
-7.03622e-08
-4.40277e-09
-6.81569e-08
-4.53141e-09
-6.59322e-08
-4.61136e-09
-6.37084e-08
-4.64186e-09
-6.15139e-08
-4.61447e-09
-5.93822e-08
-4.51828e-09
-5.73407e-08
-4.35408e-09
-5.53964e-08
-4.14784e-09
-5.35316e-08
-3.94553e-09
-5.17125e-08
-3.78961e-09
-4.99061e-08
-3.70185e-09
-4.8096e-08
-3.67446e-09
-4.62773e-08
-3.69352e-09
-4.4439e-08
-3.75767e-09
-4.25567e-08
-3.87109e-09
-4.06133e-08
-4.00425e-09
-3.86323e-08
-4.06401e-09
-3.66862e-08
-3.93586e-09
-3.48495e-08
-3.60664e-09
-3.31301e-08
-3.24137e-09
-3.14444e-08
-3.08058e-09
-2.97205e-08
-3.21439e-09
-2.7997e-08
-3.42886e-09
-2.64147e-08
-3.32963e-09
-2.51086e-08
-2.77949e-09
-2.39597e-08
-2.13651e-09
-2.27217e-08
-1.9489e-09
-2.12198e-08
-2.35319e-09
-1.97231e-08
-2.75289e-09
-1.85058e-08
-2.55125e-09
-1.75603e-08
-1.93691e-09
-1.64387e-08
-1.79089e-09
-1.49003e-08
-2.45897e-09
-1.34112e-08
-3.03172e-09
-1.22382e-08
-2.86179e-09
-1.1127e-08
-2.5233e-09
-9.58628e-09
-2.94684e-09
-8.10137e-09
-3.40136e-09
-7.0826e-09
-3.15926e-09
-6.09383e-09
-2.58498e-09
-4.97026e-09
-2.29312e-09
-3.921e-09
-2.35435e-09
-2.65049e-09
-2.29541e-09
-1.08814e-09
-2.71879e-09
6.60894e-10
8.15352e-05
2.38628e-06
8.07789e-05
2.18916e-06
8.00296e-05
2.07531e-06
7.92744e-05
2.04357e-06
7.85152e-05
2.05663e-06
7.77473e-05
2.16405e-06
7.69607e-05
2.26872e-06
7.61588e-05
2.36487e-06
7.53422e-05
2.46839e-06
7.4493e-05
2.53971e-06
7.36014e-05
2.62635e-06
7.26736e-05
2.73785e-06
7.17133e-05
2.84808e-06
7.07398e-05
2.95031e-06
6.97403e-05
3.01348e-06
6.8699e-05
3.05969e-06
6.76201e-05
3.10273e-06
6.64902e-05
3.13104e-06
6.53731e-05
3.23683e-06
6.4297e-05
3.44804e-06
6.32711e-05
3.51364e-06
6.21539e-05
3.41493e-06
6.09037e-05
3.33612e-06
5.96714e-05
3.4511e-06
5.85278e-05
3.6223e-06
5.74716e-05
3.6973e-06
5.63715e-05
3.56831e-06
5.50713e-05
3.49236e-06
5.38135e-05
3.68089e-06
5.26515e-05
4.02043e-06
5.12689e-05
4.11428e-06
4.9885e-05
3.77121e-06
4.86796e-05
3.49018e-06
4.7578e-05
3.4819e-06
4.65183e-05
3.79839e-06
4.52485e-05
3.95233e-06
4.38524e-05
3.73264e-06
4.26024e-05
3.54695e-06
4.14994e-05
3.51719e-06
4.04083e-05
3.69072e-06
3.93088e-05
3.94686e-06
3.80623e-05
3.63171e-06
3.67428e-05
3.34415e-06
3.55631e-05
3.34595e-06
3.44501e-05
3.54762e-06
3.33034e-05
3.62309e-06
3.20527e-05
3.52692e-06
3.08173e-05
3.45587e-06
2.96906e-05
3.42428e-06
2.85688e-05
3.35904e-06
2.74061e-05
3.20703e-06
2.62732e-05
3.11832e-06
2.52655e-05
3.10655e-06
2.42699e-05
3.09266e-06
2.32942e-05
2.87897e-06
2.23145e-05
2.76381e-06
2.1355e-05
2.93111e-06
2.03451e-05
3.19416e-06
1.94862e-05
3.04185e-06
1.86794e-05
2.64643e-06
1.76775e-05
2.64263e-06
1.66266e-05
2.85211e-06
1.57258e-05
2.9943e-06
1.49414e-05