/*--------------------------------*- C++ -*----------------------------------*\
| =========                 |                                                 |
| \\      /  F ield         | OpenFOAM: The Open Source CFD Toolbox           |
|  \\    /   O peration     | Version:  v2006                                 |
|   \\  /    A nd           | Website:  www.openfoam.com                      |
|    \\/     M anipulation  |                                                 |
\*---------------------------------------------------------------------------*/
FoamFile
{
    version     2.0;
    format      ascii;
    class       volScalarField;
    location    "2.5";
    object      k;
}
// * * * * * * * * * * * * * * * * * * * * * * * * * * * * * * * * * * * * * //

dimensions      [0 2 -2 0 0 0 0];


internalField   nonuniform List<scalar> 
33000
(
1.10236e-08
1.36713e-08
1.82369e-08
2.38909e-08
2.93261e-08
3.36047e-08
3.64613e-08
3.81227e-08
3.89902e-08
3.94123e-08
3.96099e-08
3.96961e-08
3.97196e-08
3.97029e-08
3.96651e-08
3.96268e-08
3.96033e-08
3.96032e-08
3.96282e-08
3.96672e-08
3.97054e-08
3.97399e-08
3.97795e-08
3.98419e-08
3.99424e-08
4.00597e-08
4.01574e-08
4.02428e-08
4.03492e-08
4.0456e-08
4.05322e-08
4.05944e-08
4.06731e-08
4.07797e-08
4.09023e-08
4.09593e-08
4.09423e-08
4.0976e-08
4.11018e-08
4.11942e-08
4.12086e-08
4.11285e-08
4.09853e-08
4.0898e-08
4.08257e-08
4.06528e-08
4.03738e-08
4.01197e-08
3.99288e-08
3.97012e-08
3.94393e-08
3.9189e-08
3.90291e-08
3.8916e-08
3.8781e-08
3.86314e-08
3.85045e-08
3.83863e-08
3.8168e-08
3.78732e-08
3.7557e-08
3.73712e-08
3.72767e-08
3.70307e-08
3.67217e-08
3.63795e-08
3.61337e-08
3.59633e-08
3.56315e-08
3.52643e-08
3.48837e-08
3.43471e-08
3.3597e-08
3.26512e-08
3.17874e-08
3.0439e-08
2.87901e-08
2.74757e-08
2.63682e-08
2.59999e-08
2.59336e-08
2.60146e-08
2.61972e-08
2.61897e-08
2.63078e-08
2.61577e-08
2.58699e-08
2.58109e-08
2.57523e-08
2.5697e-08
2.55475e-08
2.53045e-08
2.50039e-08
2.46691e-08
2.4334e-08
2.37443e-08
2.30823e-08
2.19338e-08
2.11451e-08
1.9661e-08
1.9569e-08
1.92304e-08
1.9386e-08
1.91381e-08
1.91212e-08
1.91744e-08
1.90748e-08
1.8893e-08
1.87675e-08
1.86946e-08
1.85994e-08
1.84743e-08
1.8372e-08
1.80894e-08
1.78763e-08
1.73306e-08
1.71925e-08
1.66146e-08
1.67089e-08
1.69353e-08
1.70139e-08
1.70006e-08
1.70546e-08
1.7089e-08
1.71386e-08
1.71833e-08
1.724e-08
1.72949e-08
1.73258e-08
1.73519e-08
1.73927e-08
1.74385e-08
1.74595e-08
1.74823e-08
1.74983e-08
1.75312e-08
1.75539e-08
1.75706e-08
1.75893e-08
1.76136e-08
1.76381e-08
1.76504e-08
1.76711e-08
1.7689e-08
1.77069e-08
1.77239e-08
1.77429e-08
1.77642e-08
1.77899e-08
1.78163e-08
1.78454e-08
1.78761e-08
1.79051e-08
1.79343e-08
1.7973e-08
1.80216e-08
1.80705e-08
1.81177e-08
1.81609e-08
1.82208e-08
1.82928e-08
1.83632e-08
1.84262e-08
1.84961e-08
1.85785e-08
1.86569e-08
1.87228e-08
1.8785e-08
1.88576e-08
1.89322e-08
1.90005e-08
1.9055e-08
1.91101e-08
1.91736e-08
1.92314e-08
1.92824e-08
1.93282e-08
1.93716e-08
1.9415e-08
1.94525e-08
1.94866e-08
1.95151e-08
1.95372e-08
1.95589e-08
1.95762e-08
1.95885e-08
1.95918e-08
1.95924e-08
1.959e-08
1.95827e-08
1.95681e-08
1.95482e-08
1.9525e-08
1.94957e-08
1.94618e-08
1.94218e-08
1.93764e-08
1.93264e-08
1.9272e-08
1.9211e-08
1.91465e-08
1.90784e-08
1.90044e-08
1.89265e-08
1.8846e-08
1.8766e-08
1.86866e-08
1.86083e-08
1.85298e-08
1.84509e-08
1.8373e-08
1.82955e-08
1.82178e-08
1.81417e-08
1.80665e-08
1.7991e-08
1.79162e-08
1.78421e-08
1.7768e-08
1.7694e-08
1.76211e-08
1.75489e-08
1.74765e-08
1.7405e-08
1.73338e-08
1.72618e-08
1.71905e-08
1.71197e-08
1.70483e-08
1.69783e-08
1.69085e-08
1.68385e-08
1.67689e-08
1.6699e-08
1.66292e-08
1.65601e-08
1.64904e-08
1.64213e-08
1.63521e-08
1.62837e-08
1.62155e-08
1.61468e-08
1.60784e-08
1.60093e-08
1.59406e-08
1.58716e-08
1.58028e-08
1.57342e-08
1.56653e-08
1.55969e-08
1.55279e-08
1.54593e-08
1.539e-08
1.53213e-08
1.52522e-08
1.51835e-08
1.51144e-08
1.50452e-08
1.49757e-08
1.49061e-08
1.48359e-08
1.4766e-08
1.46954e-08
1.46252e-08
1.45545e-08
1.44841e-08
1.44133e-08
1.43424e-08
1.42714e-08
1.41999e-08
1.41291e-08
1.40579e-08
1.39865e-08
1.39149e-08
1.3843e-08
1.37712e-08
1.36992e-08
1.3627e-08
1.35553e-08
1.34834e-08
1.34111e-08
1.33391e-08
1.3267e-08
1.31945e-08
1.31221e-08
1.30496e-08
1.29766e-08
1.29034e-08
1.28301e-08
1.27565e-08
1.26829e-08
1.26093e-08
1.25357e-08
1.24619e-08
1.23882e-08
1.23147e-08
1.22414e-08
1.21682e-08
1.20954e-08
1.20228e-08
1.19512e-08
1.18811e-08
1.18124e-08
1.1745e-08
1.1679e-08
1.16142e-08
1.15507e-08
1.14883e-08
1.14271e-08
1.13671e-08
1.13082e-08
1.12504e-08
1.11937e-08
1.1138e-08
1.10836e-08
1.10302e-08
1.09778e-08
1.09265e-08
1.08762e-08
1.0827e-08
1.07788e-08
1.07316e-08
1.06853e-08
1.064e-08
1.05958e-08
1.05524e-08
1.051e-08
1.04684e-08
1.04278e-08
1.0388e-08
1.03491e-08
1.0311e-08
1.02735e-08
1.02368e-08
1.02008e-08
1.01655e-08
1.01309e-08
1.0097e-08
1.00636e-08
1.00309e-08
9.99875e-09
9.96724e-09
9.93637e-09
9.90609e-09
9.87634e-09
9.84712e-09
9.81839e-09
9.79017e-09
9.76247e-09
9.73526e-09
9.7085e-09
9.68216e-09
9.65625e-09
9.63075e-09
9.60568e-09
9.58103e-09
9.55682e-09
9.53305e-09
9.50966e-09
9.48663e-09
9.46394e-09
9.4416e-09
9.41958e-09
9.39792e-09
9.37664e-09
9.3557e-09
9.33509e-09
9.3148e-09
9.29482e-09
9.27514e-09
9.25576e-09
9.23669e-09
9.2179e-09
9.19939e-09
9.18115e-09
9.16318e-09
9.14548e-09
9.12807e-09
9.11096e-09
9.09412e-09
9.07754e-09
9.06121e-09
9.04513e-09
9.0293e-09
9.01375e-09
8.99847e-09
8.98345e-09
8.96868e-09
8.95415e-09
8.93987e-09
8.92582e-09
8.91202e-09
8.89847e-09
8.88515e-09
8.87207e-09
8.85921e-09
8.84658e-09
8.83417e-09
8.822e-09
8.81007e-09
8.79834e-09
8.78682e-09
8.77551e-09
8.7644e-09
8.75351e-09
8.74284e-09
8.73238e-09
8.72213e-09
8.71207e-09
8.70221e-09
8.69254e-09
8.68307e-09
8.6738e-09
8.66473e-09
8.65585e-09
8.64714e-09
8.63861e-09
8.63026e-09
8.62207e-09
8.61408e-09
8.60628e-09
8.59857e-09
8.59108e-09
8.58371e-09
8.57626e-09
8.56927e-09
8.56266e-09
8.55564e-09
8.54986e-09
8.54321e-09
8.54027e-09
8.53387e-09
8.5291e-09
8.52359e-09
8.51838e-09
8.51313e-09
8.508e-09
8.50299e-09
8.49809e-09
8.49333e-09
8.48867e-09
8.48409e-09
8.47953e-09
8.47518e-09
8.47106e-09
8.46685e-09
8.46307e-09
8.45914e-09
8.45628e-09
8.4527e-09
8.44953e-09
8.44627e-09
8.44322e-09
8.44015e-09
8.43721e-09
8.43441e-09
8.43192e-09
8.42923e-09
8.42678e-09
8.42487e-09
8.42222e-09
8.42043e-09
8.418e-09
8.41407e-09
8.41251e-09
8.41114e-09
8.40717e-09
8.41392e-09
8.40945e-09
8.44231e-09
8.43703e-09
8.44355e-09
8.44616e-09
8.44733e-09
8.44763e-09
8.44734e-09
8.44659e-09
8.44551e-09
8.44421e-09
8.4428e-09
8.44135e-09
8.43994e-09
8.4386e-09
8.4373e-09
8.43601e-09
8.43469e-09
8.43337e-09
8.43206e-09
8.4308e-09
8.42957e-09
8.42833e-09
8.42708e-09
8.42581e-09
8.42452e-09
8.42324e-09
8.42198e-09
8.42073e-09
8.41952e-09
8.41832e-09
8.41716e-09
8.41602e-09
8.41492e-09
8.4139e-09
8.41293e-09
8.41204e-09
8.41123e-09
8.41053e-09
8.40991e-09
8.40941e-09
8.409e-09
8.40867e-09
8.40835e-09
8.40799e-09
8.4075e-09
8.40687e-09
8.40615e-09
8.40543e-09
8.40482e-09
8.40442e-09
8.40438e-09
8.4047e-09
8.40531e-09
8.40596e-09
8.40635e-09
8.40624e-09
8.40581e-09
8.40554e-09
8.40595e-09
8.40686e-09
8.4074e-09
8.40684e-09
8.40514e-09
8.4032e-09
8.40223e-09
8.4022e-09
8.40165e-09
8.4e-09
8.39799e-09
8.39749e-09
8.39864e-09
8.39901e-09
8.39871e-09
8.39975e-09
8.40262e-09
8.4041e-09
8.40373e-09
8.40339e-09
8.40148e-09
8.40664e-09
8.39504e-09
1.00573e-08
1.02629e-08
1.06611e-08
1.12177e-08
1.17974e-08
1.22948e-08
1.2641e-08
1.28663e-08
1.29843e-08
1.30198e-08
1.30237e-08
1.30316e-08
1.30449e-08
1.30578e-08
1.30344e-08
1.29684e-08
1.28958e-08
1.28542e-08
1.29031e-08
1.30395e-08
1.30809e-08
1.2943e-08
1.27501e-08
1.2716e-08
1.285e-08
1.29409e-08
1.28485e-08
1.26604e-08
1.26989e-08
1.28379e-08
1.27342e-08
1.25111e-08
1.24418e-08
1.25518e-08
1.27198e-08
1.25275e-08
1.22077e-08
1.21625e-08
1.23136e-08
1.24653e-08
1.24742e-08
1.21122e-08
1.17635e-08
1.18443e-08
1.20194e-08
1.1927e-08
1.1681e-08
1.16037e-08
1.16797e-08
1.16075e-08
1.13914e-08
1.12468e-08
1.1298e-08
1.13013e-08
1.12006e-08
1.11088e-08
1.12139e-08
1.13075e-08
1.12816e-08
1.10839e-08
1.09021e-08
1.09443e-08
1.11144e-08
1.10353e-08
1.08277e-08
1.06388e-08
1.0612e-08
1.06897e-08
1.06192e-08
1.05575e-08
1.05777e-08
1.05342e-08
1.0433e-08
1.03632e-08
1.04263e-08
1.03906e-08
1.03844e-08
1.05159e-08
1.04075e-08
1.02431e-08
1.02775e-08
1.02846e-08
1.04053e-08
1.03508e-08
1.03257e-08
1.02264e-08
1.01989e-08
1.02188e-08
1.02196e-08
1.02184e-08
1.01746e-08
1.01534e-08
1.01442e-08
1.01398e-08
1.01272e-08
1.01216e-08
1.01197e-08
1.01176e-08
1.01159e-08
1.01149e-08
1.01254e-08
1.0167e-08
1.02035e-08
1.01742e-08
1.02136e-08
1.01985e-08
1.01559e-08
1.01191e-08
1.01187e-08
1.01223e-08
1.01164e-08
1.01144e-08
1.01122e-08
1.01086e-08
1.011e-08
1.01092e-08
1.01083e-08
1.01059e-08
1.01092e-08
1.01512e-08
1.01976e-08
1.01582e-08
1.01906e-08
1.01755e-08
1.01431e-08
1.01372e-08
1.01314e-08
1.01303e-08
1.01292e-08
1.01203e-08
1.01137e-08
1.01249e-08
1.01246e-08
1.01207e-08
1.01164e-08
1.0119e-08
1.01299e-08
1.01261e-08
1.01244e-08
1.01233e-08
1.0136e-08
1.01328e-08
1.01313e-08
1.01365e-08
1.01399e-08
1.01357e-08
1.01324e-08
1.01354e-08
1.01441e-08
1.01401e-08
1.01409e-08
1.01425e-08
1.01334e-08
1.01326e-08
1.01425e-08
1.0144e-08
1.01391e-08
1.01332e-08
1.01352e-08
1.01421e-08
1.01419e-08
1.01361e-08
1.01324e-08
1.01385e-08
1.01416e-08
1.01384e-08
1.01327e-08
1.01345e-08
1.01382e-08
1.01387e-08
1.01327e-08
1.01286e-08
1.01329e-08
1.01345e-08
1.01297e-08
1.01273e-08
1.01264e-08
1.01259e-08
1.0124e-08
1.01226e-08
1.01214e-08
1.01187e-08
1.01173e-08
1.01165e-08
1.01138e-08
1.01103e-08
1.0107e-08
1.01071e-08
1.01055e-08
1.01029e-08
1.00993e-08
1.00981e-08
1.00958e-08
1.00927e-08
1.00899e-08
1.00875e-08
1.00861e-08
1.00835e-08
1.008e-08
1.00769e-08
1.00752e-08
1.00733e-08
1.00713e-08
1.0068e-08
1.00654e-08
1.00625e-08
1.00608e-08
1.00598e-08
1.00565e-08
1.00539e-08
1.00517e-08
1.00507e-08
1.00481e-08
1.00461e-08
1.00441e-08
1.0042e-08
1.00409e-08
1.00392e-08
1.00377e-08
1.00365e-08
1.00346e-08
1.00328e-08
1.00321e-08
1.00312e-08
1.00305e-08
1.00294e-08
1.00287e-08
1.00281e-08
1.00273e-08
1.00271e-08
1.00269e-08
1.00267e-08
1.00266e-08
1.00268e-08
1.00269e-08
1.00271e-08
1.00273e-08
1.00274e-08
1.00274e-08
1.00275e-08
1.00279e-08
1.00281e-08
1.00281e-08
1.00282e-08
1.00284e-08
1.00284e-08
1.00282e-08
1.00282e-08
1.00283e-08
1.00284e-08
1.00283e-08
1.00282e-08
1.0028e-08
1.00279e-08
1.00277e-08
1.00275e-08
1.00273e-08
1.00269e-08
1.00266e-08
1.00265e-08
1.00262e-08
1.00259e-08
1.00256e-08
1.00252e-08
1.00249e-08
1.00245e-08
1.00241e-08
1.00237e-08
1.00233e-08
1.00229e-08
1.00224e-08
1.00219e-08
1.00214e-08
1.00209e-08
1.00204e-08
1.00199e-08
1.00194e-08
1.0019e-08
1.00185e-08
1.0018e-08
1.00175e-08
1.00169e-08
1.00164e-08
1.00159e-08
1.00155e-08
1.0015e-08
1.00145e-08
1.0014e-08
1.00135e-08
1.0013e-08
1.00125e-08
1.0012e-08
1.00115e-08
1.0011e-08
1.00105e-08
1.001e-08
1.00095e-08
1.0009e-08
1.00085e-08
1.0008e-08
1.00074e-08
1.0007e-08
1.00065e-08
1.0006e-08
1.00055e-08
1.00051e-08
1.00046e-08
1.00042e-08
1.00038e-08
1.00033e-08
1.00029e-08
1.00025e-08
1.00021e-08
1.00017e-08
1.00013e-08
1.00008e-08
1.00004e-08
1e-08
9.99965e-09
9.99926e-09
9.99888e-09
9.99849e-09
9.9981e-09
9.99772e-09
9.99734e-09
9.99697e-09
9.99661e-09
9.99625e-09
9.99589e-09
9.99555e-09
9.99523e-09
9.99491e-09
9.99461e-09
9.99431e-09
9.99403e-09
9.99375e-09
9.99348e-09
9.99321e-09
9.99293e-09
9.99265e-09
9.99239e-09
9.99213e-09
9.99188e-09
9.99163e-09
9.99139e-09
9.99116e-09
9.99093e-09
9.99071e-09
9.9905e-09
9.99029e-09
9.99008e-09
9.98988e-09
9.98968e-09
9.98949e-09
9.98929e-09
9.9891e-09
9.98892e-09
9.98875e-09
9.98858e-09
9.98841e-09
9.98824e-09
9.98807e-09
9.98791e-09
9.98774e-09
9.98758e-09
9.98741e-09
9.98726e-09
9.98711e-09
9.98697e-09
9.98683e-09
9.9867e-09
9.98657e-09
9.98644e-09
9.98631e-09
9.98617e-09
9.98604e-09
9.98591e-09
9.98579e-09
9.98566e-09
9.98554e-09
9.98542e-09
9.9853e-09
9.98517e-09
9.98504e-09
9.98491e-09
9.98478e-09
9.98466e-09
9.98455e-09
9.98444e-09
9.98432e-09
9.98421e-09
9.98409e-09
9.98396e-09
9.98383e-09
9.98371e-09
9.98359e-09
9.98347e-09
9.98337e-09
9.98326e-09
9.98316e-09
9.98305e-09
9.98294e-09
9.98284e-09
9.98274e-09
9.98264e-09
9.98254e-09
9.98244e-09
9.98233e-09
9.98223e-09
9.98213e-09
9.98203e-09
9.98193e-09
9.98185e-09
9.98177e-09
9.98169e-09
9.98159e-09
9.98148e-09
9.9814e-09
9.98133e-09
9.98125e-09
9.98127e-09
9.98115e-09
9.98085e-09
9.98074e-09
9.98059e-09
9.98052e-09
9.98004e-09
9.98003e-09
9.9804e-09
9.98041e-09
9.98046e-09
9.98031e-09
9.98026e-09
9.9802e-09
9.98015e-09
9.98009e-09
9.98004e-09
9.97999e-09
9.97997e-09
9.97994e-09
9.97984e-09
9.97977e-09
9.97973e-09
9.97969e-09
9.9796e-09
9.97956e-09
9.97961e-09
9.97961e-09
9.9796e-09
9.97954e-09
9.97951e-09
9.97951e-09
9.97948e-09
9.97938e-09
9.97931e-09
9.97926e-09
9.97924e-09
9.97928e-09
9.97923e-09
9.97961e-09
9.97936e-09
9.97925e-09
9.97899e-09
9.98031e-09
9.9802e-09
9.98377e-09
9.98439e-09
9.98088e-09
9.98157e-09
9.98212e-09
9.98139e-09
9.98093e-09
9.98057e-09
9.98041e-09
9.98029e-09
9.98017e-09
9.98006e-09
9.97996e-09
9.97987e-09
9.97979e-09
9.97972e-09
9.97968e-09
9.97964e-09
9.97959e-09
9.97952e-09
9.97945e-09
9.97941e-09
9.97937e-09
9.97935e-09
9.97931e-09
9.97928e-09
9.97923e-09
9.97919e-09
9.97915e-09
9.97912e-09
9.9791e-09
9.97909e-09
9.9791e-09
9.97912e-09
9.97915e-09
9.97919e-09
9.97923e-09
9.97924e-09
9.97925e-09
9.97926e-09
9.97927e-09
9.97928e-09
9.97928e-09
9.97928e-09
9.97928e-09
9.97927e-09
9.97925e-09
9.97923e-09
9.97921e-09
9.9792e-09
9.97918e-09
9.97918e-09
9.97918e-09
9.97919e-09
9.97919e-09
9.97921e-09
9.97921e-09
9.97921e-09
9.9792e-09
9.97917e-09
9.97914e-09
9.97916e-09
9.97917e-09
9.97915e-09
9.97915e-09
9.97904e-09
9.97893e-09
9.979e-09
9.9791e-09
9.97912e-09
9.97905e-09
9.9789e-09
9.97899e-09
9.97913e-09
9.97915e-09
9.97911e-09
9.97914e-09
9.97917e-09
9.97916e-09
9.97915e-09
9.97906e-09
9.97909e-09
9.97903e-09
9.97917e-09
9.97875e-09
1.00059e-08
1.00277e-08
1.0072e-08
1.01349e-08
1.02045e-08
1.02671e-08
1.03131e-08
1.03419e-08
1.03567e-08
1.03606e-08
1.03598e-08
1.03596e-08
1.03605e-08
1.0361e-08
1.03564e-08
1.03462e-08
1.03346e-08
1.03263e-08
1.03312e-08
1.03479e-08
1.03512e-08
1.0329e-08
1.03e-08
1.02934e-08
1.03071e-08
1.03159e-08
1.02987e-08
1.02723e-08
1.02767e-08
1.02987e-08
1.02868e-08
1.02497e-08
1.02278e-08
1.02334e-08
1.02545e-08
1.0239e-08
1.02003e-08
1.01856e-08
1.01954e-08
1.0212e-08
1.02178e-08
1.01753e-08
1.01344e-08
1.0134e-08
1.01507e-08
1.01456e-08
1.01231e-08
1.01125e-08
1.01151e-08
1.0107e-08
1.00883e-08
1.00765e-08
1.00785e-08
1.00776e-08
1.00685e-08
1.00613e-08
1.00682e-08
1.00773e-08
1.00757e-08
1.00591e-08
1.00479e-08
1.00516e-08
1.00636e-08
1.00578e-08
1.00435e-08
1.00351e-08
1.0034e-08
1.00366e-08
1.00345e-08
1.00331e-08
1.00335e-08
1.00312e-08
1.00285e-08
1.00268e-08
1.0028e-08
1.00269e-08
1.00264e-08
1.00282e-08
1.00269e-08
1.00261e-08
1.00301e-08
1.00311e-08
1.0032e-08
1.00321e-08
1.00294e-08
1.00278e-08
1.00263e-08
1.00261e-08
1.00239e-08
1.00215e-08
1.00192e-08
1.00195e-08
1.00192e-08
1.00188e-08
1.00192e-08
1.0019e-08
1.00187e-08
1.00187e-08
1.00186e-08
1.00185e-08
1.00186e-08
1.00187e-08
1.0019e-08
1.00194e-08
1.00203e-08
1.00202e-08
1.00191e-08
1.00189e-08
1.00191e-08
1.00189e-08
1.00182e-08
1.00179e-08
1.00175e-08
1.00174e-08
1.00173e-08
1.00172e-08
1.00172e-08
1.00172e-08
1.00173e-08
1.00174e-08
1.00177e-08
1.00183e-08
1.00202e-08
1.00202e-08
1.00186e-08
1.00191e-08
1.00186e-08
1.00182e-08
1.0018e-08
1.00178e-08
1.00174e-08
1.00177e-08
1.0018e-08
1.00176e-08
1.00169e-08
1.00174e-08
1.00177e-08
1.00171e-08
1.00174e-08
1.00173e-08
1.00175e-08
1.00172e-08
1.00172e-08
1.00172e-08
1.00173e-08
1.00171e-08
1.00169e-08
1.00169e-08
1.00171e-08
1.00169e-08
1.00169e-08
1.00169e-08
1.00167e-08
1.00166e-08
1.00168e-08
1.00168e-08
1.00166e-08
1.00165e-08
1.00165e-08
1.00166e-08
1.00165e-08
1.00163e-08
1.00162e-08
1.00162e-08
1.00163e-08
1.00162e-08
1.0016e-08
1.00159e-08
1.00159e-08
1.00159e-08
1.00157e-08
1.00155e-08
1.00155e-08
1.00155e-08
1.00154e-08
1.00152e-08
1.00152e-08
1.00151e-08
1.0015e-08
1.00149e-08
1.00149e-08
1.00148e-08
1.00147e-08
1.00146e-08
1.00146e-08
1.00144e-08
1.00143e-08
1.00143e-08
1.00142e-08
1.00141e-08
1.0014e-08
1.00139e-08
1.00138e-08
1.00137e-08
1.00136e-08
1.00135e-08
1.00134e-08
1.00134e-08
1.00133e-08
1.00132e-08
1.00131e-08
1.0013e-08
1.0013e-08
1.00129e-08
1.00128e-08
1.00127e-08
1.00126e-08
1.00126e-08
1.00125e-08
1.00124e-08
1.00123e-08
1.00123e-08
1.00122e-08
1.00122e-08
1.00121e-08
1.0012e-08
1.00119e-08
1.00119e-08
1.00118e-08
1.00118e-08
1.00118e-08
1.00116e-08
1.00116e-08
1.00115e-08
1.00115e-08
1.00115e-08
1.00114e-08
1.00113e-08
1.00112e-08
1.00111e-08
1.00111e-08
1.00111e-08
1.00111e-08
1.0011e-08
1.00109e-08
1.00109e-08
1.00109e-08
1.00108e-08
1.00108e-08
1.00108e-08
1.00107e-08
1.00106e-08
1.00106e-08
1.00105e-08
1.00105e-08
1.00104e-08
1.00104e-08
1.00103e-08
1.00102e-08
1.00102e-08
1.00101e-08
1.00101e-08
1.00101e-08
1.001e-08
1.001e-08
1.00099e-08
1.00099e-08
1.00098e-08
1.00097e-08
1.00097e-08
1.00096e-08
1.00096e-08
1.00095e-08
1.00095e-08
1.00094e-08
1.00094e-08
1.00094e-08
1.00093e-08
1.00093e-08
1.00092e-08
1.00092e-08
1.00091e-08
1.00091e-08
1.0009e-08
1.0009e-08
1.00089e-08
1.00089e-08
1.00088e-08
1.00088e-08
1.00087e-08
1.00087e-08
1.00086e-08
1.00086e-08
1.00085e-08
1.00085e-08
1.00085e-08
1.00084e-08
1.00084e-08
1.00083e-08
1.00083e-08
1.00082e-08
1.00082e-08
1.00081e-08
1.0008e-08
1.0008e-08
1.00079e-08
1.00079e-08
1.00078e-08
1.00078e-08
1.00077e-08
1.00077e-08
1.00076e-08
1.00075e-08
1.00075e-08
1.00074e-08
1.00074e-08
1.00073e-08
1.00073e-08
1.00072e-08
1.00072e-08
1.00071e-08
1.0007e-08
1.0007e-08
1.00069e-08
1.00069e-08
1.00068e-08
1.00067e-08
1.00067e-08
1.00066e-08
1.00066e-08
1.00065e-08
1.00064e-08
1.00064e-08
1.00063e-08
1.00062e-08
1.00062e-08
1.00061e-08
1.00061e-08
1.0006e-08
1.00059e-08
1.00059e-08
1.00058e-08
1.00057e-08
1.00057e-08
1.00056e-08
1.00055e-08
1.00054e-08
1.00054e-08
1.00053e-08
1.00052e-08
1.00052e-08
1.00051e-08
1.0005e-08
1.0005e-08
1.00049e-08
1.00048e-08
1.00048e-08
1.00047e-08
1.00046e-08
1.00046e-08
1.00045e-08
1.00044e-08
1.00044e-08
1.00043e-08
1.00042e-08
1.00042e-08
1.00041e-08
1.00041e-08
1.0004e-08
1.00039e-08
1.00039e-08
1.00038e-08
1.00038e-08
1.00037e-08
1.00036e-08
1.00036e-08
1.00035e-08
1.00035e-08
1.00034e-08
1.00034e-08
1.00033e-08
1.00033e-08
1.00032e-08
1.00032e-08
1.00031e-08
1.00031e-08
1.0003e-08
1.0003e-08
1.00029e-08
1.00029e-08
1.00028e-08
1.00027e-08
1.00027e-08
1.00026e-08
1.00026e-08
1.00025e-08
1.00025e-08
1.00025e-08
1.00024e-08
1.00023e-08
1.00023e-08
1.00022e-08
1.00022e-08
1.00021e-08
1.00021e-08
1.0002e-08
1.0002e-08
1.00019e-08
1.00019e-08
1.00018e-08
1.00017e-08
1.00017e-08
1.00016e-08
1.00016e-08
1.00015e-08
1.00015e-08
1.00014e-08
1.00013e-08
1.00013e-08
1.00012e-08
1.00012e-08
1.00011e-08
1.0001e-08
1.0001e-08
1.00009e-08
1.00009e-08
1.00008e-08
1.00008e-08
1.00007e-08
1.00005e-08
1.00004e-08
1.00003e-08
1.00003e-08
9.99982e-09
9.99977e-09
1.00001e-08
1.00001e-08
1.00001e-08
1e-08
1e-08
9.99996e-09
9.99984e-09
9.99978e-09
9.99972e-09
9.9997e-09
9.99964e-09
9.99955e-09
9.99946e-09
9.99941e-09
9.99938e-09
9.99934e-09
9.99919e-09
9.99918e-09
9.99924e-09
9.9992e-09
9.99916e-09
9.99913e-09
9.99912e-09
9.99903e-09
9.99898e-09
9.99892e-09
9.99886e-09
9.99888e-09
9.99896e-09
9.99876e-09
9.99865e-09
9.99905e-09
9.99874e-09
9.99863e-09
9.9982e-09
1.00006e-08
1.00003e-08
1.00026e-08
1.00026e-08
9.99924e-09
9.99948e-09
9.99889e-09
9.99878e-09
9.99835e-09
9.99769e-09
9.9971e-09
9.99696e-09
9.99698e-09
9.99694e-09
9.99693e-09
9.99696e-09
9.99701e-09
9.99708e-09
9.99716e-09
9.99724e-09
9.9973e-09
9.99737e-09
9.99744e-09
9.99751e-09
9.99755e-09
9.99759e-09
9.99765e-09
9.99771e-09
9.99778e-09
9.99784e-09
9.99789e-09
9.99791e-09
9.99791e-09
9.9979e-09
9.99789e-09
9.9979e-09
9.99794e-09
9.99799e-09
9.99804e-09
9.99806e-09
9.99805e-09
9.99801e-09
9.99797e-09
9.99795e-09
9.99794e-09
9.99796e-09
9.998e-09
9.99806e-09
9.99809e-09
9.9981e-09
9.99807e-09
9.99803e-09
9.99799e-09
9.99797e-09
9.99796e-09
9.99796e-09
9.99794e-09
9.9979e-09
9.99787e-09
9.99789e-09
9.99794e-09
9.99799e-09
9.99806e-09
9.99808e-09
9.99799e-09
9.99787e-09
9.9978e-09
9.99773e-09
9.99774e-09
9.9978e-09
9.99777e-09
9.99791e-09
9.99789e-09
9.99769e-09
9.99783e-09
9.99773e-09
9.998e-09
9.99793e-09
9.99772e-09
9.99787e-09
9.9977e-09
9.99782e-09
9.99776e-09
9.99798e-09
9.99765e-09
9.99768e-09
9.9976e-09
9.99838e-09
9.99904e-09
9.9988e-09
1.00017e-08
1.00067e-08
1.00163e-08
1.00287e-08
1.00412e-08
1.00515e-08
1.00588e-08
1.00631e-08
1.00651e-08
1.00653e-08
1.00647e-08
1.00642e-08
1.0064e-08
1.00636e-08
1.00624e-08
1.00604e-08
1.00584e-08
1.00569e-08
1.00568e-08
1.00578e-08
1.00574e-08
1.00545e-08
1.0051e-08
1.00496e-08
1.00503e-08
1.00504e-08
1.00482e-08
1.00455e-08
1.00457e-08
1.00481e-08
1.00475e-08
1.00434e-08
1.004e-08
1.00397e-08
1.00416e-08
1.0041e-08
1.00376e-08
1.00356e-08
1.00357e-08
1.00368e-08
1.00373e-08
1.00335e-08
1.00296e-08
1.00288e-08
1.00296e-08
1.00291e-08
1.00273e-08
1.00262e-08
1.00259e-08
1.00249e-08
1.00234e-08
1.00222e-08
1.00219e-08
1.00213e-08
1.00203e-08
1.00195e-08
1.00194e-08
1.00195e-08
1.0019e-08
1.00178e-08
1.00171e-08
1.00171e-08
1.00176e-08
1.00172e-08
1.00165e-08
1.00162e-08
1.00162e-08
1.00162e-08
1.00162e-08
1.00163e-08
1.00164e-08
1.00165e-08
1.00166e-08
1.00166e-08
1.00168e-08
1.00169e-08
1.00168e-08
1.00169e-08
1.00169e-08
1.00172e-08
1.00185e-08
1.00196e-08
1.00207e-08
1.00221e-08
1.00234e-08
1.00258e-08
1.00278e-08
1.00285e-08
1.0027e-08
1.00241e-08
1.0022e-08
1.00203e-08
1.00192e-08
1.00178e-08
1.0018e-08
1.00181e-08
1.00182e-08
1.00181e-08
1.00181e-08
1.0018e-08
1.00181e-08
1.00181e-08
1.00182e-08
1.00182e-08
1.00183e-08
1.00185e-08
1.00187e-08
1.00189e-08
1.00192e-08
1.0019e-08
1.00183e-08
1.00181e-08
1.00178e-08
1.00176e-08
1.00175e-08
1.00174e-08
1.00172e-08
1.00172e-08
1.00171e-08
1.00172e-08
1.00172e-08
1.00172e-08
1.00172e-08
1.00175e-08
1.00177e-08
1.00185e-08
1.0018e-08
1.00171e-08
1.00169e-08
1.00166e-08
1.00164e-08
1.00162e-08
1.00161e-08
1.00159e-08
1.00157e-08
1.00157e-08
1.00159e-08
1.00156e-08
1.00157e-08
1.00156e-08
1.00155e-08
1.00154e-08
1.00153e-08
1.00153e-08
1.00152e-08
1.00151e-08
1.00151e-08
1.0015e-08
1.0015e-08
1.00149e-08
1.00149e-08
1.00149e-08
1.00149e-08
1.00148e-08
1.00148e-08
1.00148e-08
1.00148e-08
1.00147e-08
1.00147e-08
1.00146e-08
1.00146e-08
1.00146e-08
1.00145e-08
1.00145e-08
1.00144e-08
1.00144e-08
1.00143e-08
1.00142e-08
1.00142e-08
1.00141e-08
1.00141e-08
1.0014e-08
1.00139e-08
1.00139e-08
1.00138e-08
1.00137e-08
1.00137e-08
1.00137e-08
1.00136e-08
1.00136e-08
1.00135e-08
1.00135e-08
1.00134e-08
1.00133e-08
1.00133e-08
1.00132e-08
1.00132e-08
1.00131e-08
1.0013e-08
1.0013e-08
1.00129e-08
1.00129e-08
1.00128e-08
1.00128e-08
1.00127e-08
1.00126e-08
1.00126e-08
1.00126e-08
1.00125e-08
1.00124e-08
1.00124e-08
1.00123e-08
1.00123e-08
1.00122e-08
1.00122e-08
1.00121e-08
1.00121e-08
1.0012e-08
1.0012e-08
1.00119e-08
1.00119e-08
1.00118e-08
1.00118e-08
1.00117e-08
1.00117e-08
1.00116e-08
1.00116e-08
1.00115e-08
1.00115e-08
1.00114e-08
1.00114e-08
1.00113e-08
1.00113e-08
1.00112e-08
1.00112e-08
1.00111e-08
1.00111e-08
1.0011e-08
1.0011e-08
1.00109e-08
1.00109e-08
1.00108e-08
1.00107e-08
1.00107e-08
1.00106e-08
1.00105e-08
1.00105e-08
1.00105e-08
1.00104e-08
1.00104e-08
1.00103e-08
1.00103e-08
1.00102e-08
1.00102e-08
1.00101e-08
1.00101e-08
1.001e-08
1.001e-08
1.00099e-08
1.00099e-08
1.00098e-08
1.00098e-08
1.00097e-08
1.00097e-08
1.00096e-08
1.00095e-08
1.00095e-08
1.00094e-08
1.00094e-08
1.00093e-08
1.00093e-08
1.00093e-08
1.00092e-08
1.00092e-08
1.00091e-08
1.00091e-08
1.0009e-08
1.0009e-08
1.00089e-08
1.00089e-08
1.00088e-08
1.00088e-08
1.00087e-08
1.00087e-08
1.00086e-08
1.00086e-08
1.00086e-08
1.00085e-08
1.00085e-08
1.00084e-08
1.00084e-08
1.00083e-08
1.00083e-08
1.00082e-08
1.00082e-08
1.00081e-08
1.00081e-08
1.0008e-08
1.0008e-08
1.00079e-08
1.00079e-08
1.00078e-08
1.00078e-08
1.00077e-08
1.00077e-08
1.00076e-08
1.00076e-08
1.00075e-08
1.00075e-08
1.00074e-08
1.00074e-08
1.00073e-08
1.00073e-08
1.00072e-08
1.00072e-08
1.00071e-08
1.00071e-08
1.0007e-08
1.0007e-08
1.00069e-08
1.00069e-08
1.00068e-08
1.00067e-08
1.00067e-08
1.00066e-08
1.00066e-08
1.00065e-08
1.00065e-08
1.00064e-08
1.00063e-08
1.00063e-08
1.00062e-08
1.00062e-08
1.00061e-08
1.00061e-08
1.0006e-08
1.00059e-08
1.00059e-08
1.00058e-08
1.00057e-08
1.00057e-08
1.00056e-08
1.00055e-08
1.00055e-08
1.00054e-08
1.00053e-08
1.00053e-08
1.00052e-08
1.00052e-08
1.00051e-08
1.0005e-08
1.0005e-08
1.00049e-08
1.00048e-08
1.00048e-08
1.00047e-08
1.00047e-08
1.00046e-08
1.00045e-08
1.00045e-08
1.00044e-08
1.00043e-08
1.00043e-08
1.00042e-08
1.00042e-08
1.00041e-08
1.00041e-08
1.0004e-08
1.00039e-08
1.00039e-08
1.00038e-08
1.00038e-08
1.00037e-08
1.00037e-08
1.00036e-08
1.00036e-08
1.00035e-08
1.00035e-08
1.00034e-08
1.00034e-08
1.00033e-08
1.00033e-08
1.00032e-08
1.00032e-08
1.00031e-08
1.00031e-08
1.0003e-08
1.0003e-08
1.00029e-08
1.00029e-08
1.00028e-08
1.00028e-08
1.00027e-08
1.00027e-08
1.00026e-08
1.00026e-08
1.00026e-08
1.00025e-08
1.00025e-08
1.00024e-08
1.00023e-08
1.00023e-08
1.00023e-08
1.00022e-08
1.00022e-08
1.00021e-08
1.00021e-08
1.0002e-08
1.0002e-08
1.00019e-08
1.00019e-08
1.00018e-08
1.00018e-08
1.00017e-08
1.00017e-08
1.00016e-08
1.00016e-08
1.00015e-08
1.00014e-08
1.00014e-08
1.00013e-08
1.00013e-08
1.00013e-08
1.00012e-08
1.00012e-08
1.00011e-08
1.00009e-08
1.00008e-08
1.00008e-08
1.00007e-08
1.00002e-08
1.00002e-08
1.00006e-08
1.00005e-08
1.00005e-08
1.00005e-08
1.00005e-08
1.00005e-08
1.00003e-08
1.00003e-08
1.00002e-08
1.00001e-08
1.00001e-08
9.99995e-09
9.99989e-09
9.99989e-09
9.9998e-09
9.99972e-09
9.99955e-09
9.99953e-09
9.99964e-09
9.99963e-09
9.99961e-09
9.99955e-09
9.99955e-09
9.99946e-09
9.99942e-09
9.99935e-09
9.9992e-09
9.99918e-09
9.99948e-09
9.99934e-09
9.99983e-09
9.9994e-09
9.99876e-09
9.9989e-09
9.99858e-09
1.00009e-08
1.00008e-08
1.00032e-08
1.00032e-08
1.00004e-08
1.00011e-08
1.00009e-08
1.00009e-08
1.00008e-08
1.00007e-08
1.00002e-08
9.99988e-09
9.99959e-09
9.99925e-09
9.99906e-09
9.99888e-09
9.99873e-09
9.99862e-09
9.99858e-09
9.99853e-09
9.99848e-09
9.99845e-09
9.99843e-09
9.99841e-09
9.99838e-09
9.99837e-09
9.99834e-09
9.99831e-09
9.9983e-09
9.9983e-09
9.99832e-09
9.99834e-09
9.99837e-09
9.99839e-09
9.99838e-09
9.99834e-09
9.9983e-09
9.99829e-09
9.99832e-09
9.99836e-09
9.99841e-09
9.99843e-09
9.99842e-09
9.99838e-09
9.99833e-09
9.99829e-09
9.99827e-09
9.99827e-09
9.9983e-09
9.99835e-09
9.9984e-09
9.99845e-09
9.99847e-09
9.99846e-09
9.99844e-09
9.9984e-09
9.99838e-09
9.99838e-09
9.99836e-09
9.99831e-09
9.99824e-09
9.9982e-09
9.99824e-09
9.99831e-09
9.99838e-09
9.99844e-09
9.99844e-09
9.9983e-09
9.99813e-09
9.99808e-09
9.99807e-09
9.99812e-09
9.99815e-09
9.9982e-09
9.99824e-09
9.99809e-09
9.99809e-09
9.99809e-09
9.99832e-09
9.99843e-09
9.99808e-09
9.99826e-09
9.99805e-09
9.9982e-09
9.99828e-09
9.99843e-09
9.99808e-09
9.99811e-09
9.99818e-09
9.99799e-09
9.99872e-09
9.99998e-09
9.99935e-09
1.00015e-08
1.00049e-08
1.00105e-08
1.00169e-08
1.00229e-08
1.00273e-08
1.00298e-08
1.00309e-08
1.00314e-08
1.00315e-08
1.00312e-08
1.00308e-08
1.00307e-08
1.00304e-08
1.003e-08
1.00294e-08
1.0029e-08
1.00286e-08
1.00284e-08
1.00282e-08
1.00279e-08
1.00275e-08
1.0027e-08
1.00268e-08
1.00267e-08
1.00266e-08
1.00263e-08
1.00258e-08
1.00256e-08
1.00255e-08
1.00253e-08
1.00248e-08
1.00244e-08
1.00243e-08
1.00247e-08
1.0025e-08
1.00251e-08
1.00253e-08
1.00256e-08
1.00258e-08
1.00257e-08
1.00251e-08
1.00245e-08
1.0024e-08
1.00236e-08
1.00232e-08
1.00227e-08
1.00223e-08
1.00219e-08
1.00216e-08
1.00213e-08
1.00211e-08
1.0021e-08
1.00208e-08
1.00206e-08
1.00202e-08
1.00197e-08
1.00192e-08
1.00187e-08
1.00182e-08
1.00177e-08
1.00173e-08
1.00171e-08
1.0017e-08
1.00169e-08
1.0017e-08
1.00171e-08
1.00172e-08
1.00173e-08
1.00174e-08
1.00175e-08
1.00176e-08
1.00177e-08
1.00176e-08
1.00175e-08
1.00173e-08
1.00171e-08
1.00168e-08
1.00165e-08
1.00164e-08
1.00166e-08
1.00169e-08
1.00172e-08
1.0018e-08
1.00189e-08
1.00203e-08
1.00218e-08
1.00235e-08
1.00252e-08
1.00273e-08
1.00284e-08
1.0027e-08
1.00241e-08
1.0022e-08
1.002e-08
1.00188e-08
1.00179e-08
1.00178e-08
1.00176e-08
1.00176e-08
1.00175e-08
1.00176e-08
1.00174e-08
1.00173e-08
1.00174e-08
1.00176e-08
1.00178e-08
1.0018e-08
1.00179e-08
1.00182e-08
1.00185e-08
1.00189e-08
1.00185e-08
1.00178e-08
1.00177e-08
1.00175e-08
1.00173e-08
1.00168e-08
1.0017e-08
1.00169e-08
1.00166e-08
1.00168e-08
1.00169e-08
1.00169e-08
1.00169e-08
1.0017e-08
1.00173e-08
1.00176e-08
1.00183e-08
1.00179e-08
1.00169e-08
1.00167e-08
1.00164e-08
1.00162e-08
1.00159e-08
1.00157e-08
1.00156e-08
1.00155e-08
1.00155e-08
1.00157e-08
1.00156e-08
1.00155e-08
1.00154e-08
1.00153e-08
1.00153e-08
1.00152e-08
1.00151e-08
1.00151e-08
1.0015e-08
1.0015e-08
1.00149e-08
1.00149e-08
1.00149e-08
1.00149e-08
1.00148e-08
1.00148e-08
1.00148e-08
1.00148e-08
1.00147e-08
1.00147e-08
1.00147e-08
1.00146e-08
1.00146e-08
1.00145e-08
1.00145e-08
1.00144e-08
1.00144e-08
1.00143e-08
1.00142e-08
1.00142e-08
1.00141e-08
1.0014e-08
1.0014e-08
1.00139e-08
1.00139e-08
1.00138e-08
1.00138e-08
1.00137e-08
1.00137e-08
1.00136e-08
1.00135e-08
1.00135e-08
1.00134e-08
1.00133e-08
1.00133e-08
1.00132e-08
1.00132e-08
1.00131e-08
1.00131e-08
1.0013e-08
1.0013e-08
1.00129e-08
1.00129e-08
1.00128e-08
1.00128e-08
1.00127e-08
1.00126e-08
1.00126e-08
1.00125e-08
1.00125e-08
1.00124e-08
1.00123e-08
1.00123e-08
1.00122e-08
1.00122e-08
1.00121e-08
1.00121e-08
1.0012e-08
1.00119e-08
1.00119e-08
1.00118e-08
1.00118e-08
1.00117e-08
1.00116e-08
1.00116e-08
1.00115e-08
1.00115e-08
1.00114e-08
1.00114e-08
1.00113e-08
1.00113e-08
1.00112e-08
1.00111e-08
1.00111e-08
1.0011e-08
1.0011e-08
1.00109e-08
1.00109e-08
1.00108e-08
1.00108e-08
1.00107e-08
1.00107e-08
1.00106e-08
1.00106e-08
1.00105e-08
1.00105e-08
1.00104e-08
1.00104e-08
1.00104e-08
1.00103e-08
1.00103e-08
1.00102e-08
1.00102e-08
1.00101e-08
1.001e-08
1.001e-08
1.00099e-08
1.00099e-08
1.00098e-08
1.00098e-08
1.00097e-08
1.00097e-08
1.00096e-08
1.00096e-08