/*--------------------------------*- C++ -*----------------------------------*\
| =========                 |                                                 |
| \\      /  F ield         | OpenFOAM: The Open Source CFD Toolbox           |
|  \\    /   O peration     | Version:  v2006                                 |
|   \\  /    A nd           | Website:  www.openfoam.com                      |
|    \\/     M anipulation  |                                                 |
\*---------------------------------------------------------------------------*/
FoamFile
{
    version     2.0;
    format      ascii;
    class       volScalarField;
    location    "2.5";
    object      nut;
}
// * * * * * * * * * * * * * * * * * * * * * * * * * * * * * * * * * * * * * //

dimensions      [0 2 -1 0 0 0 0];


internalField   nonuniform List<scalar> 
33000
(
3.35898e-10
4.19363e-10
5.48203e-10
7.17766e-10
8.94008e-10
1.04584e-09
1.13756e-09
1.19523e-09
1.23638e-09
1.2643e-09
1.28394e-09
1.30061e-09
1.31639e-09
1.33247e-09
1.35063e-09
1.36904e-09
1.38769e-09
1.40636e-09
1.42262e-09
1.44407e-09
1.47865e-09
1.51457e-09
1.5396e-09
1.55814e-09
1.58631e-09
1.63042e-09
1.68034e-09
1.71375e-09
1.7382e-09
1.7868e-09
1.85148e-09
1.89563e-09
1.92998e-09
1.972e-09
2.03779e-09
2.11981e-09
2.16584e-09
2.20283e-09
2.26457e-09
2.33871e-09
2.43263e-09
2.52703e-09
2.56801e-09
2.60453e-09
2.6917e-09
2.7994e-09
2.87055e-09
2.92579e-09
3.01366e-09
3.12816e-09
3.22785e-09
3.29796e-09
3.38992e-09
3.53089e-09
3.67213e-09
3.76918e-09
3.87849e-09
4.05595e-09
4.26315e-09
4.47194e-09
4.60875e-09
4.72633e-09
4.96849e-09
5.30525e-09
5.61914e-09
5.83562e-09
6.00118e-09
6.30514e-09
6.70258e-09
7.00207e-09
7.33373e-09
7.8475e-09
8.35509e-09
8.4635e-09
8.65101e-09
8.85494e-09
8.69543e-09
7.60473e-09
1.07229e-08
1.40094e-08
1.44171e-08
2.5717e-08
2.27365e-08
3.26054e-08
3.27519e-08
3.25658e-08
3.22089e-08
3.21355e-08
3.20628e-08
3.19941e-08
3.18088e-08
3.15074e-08
3.11345e-08
3.07192e-08
3.03035e-08
2.95717e-08
2.87502e-08
2.73246e-08
2.63452e-08
2.45018e-08
2.43875e-08
2.39668e-08
2.41601e-08
2.3852e-08
2.38311e-08
2.38971e-08
2.37733e-08
2.35474e-08
2.33914e-08
2.33009e-08
2.31825e-08
2.3027e-08
2.28998e-08
2.25486e-08
2.22837e-08
2.16053e-08
2.14336e-08
2.07151e-08
2.08323e-08
2.11139e-08
2.12116e-08
2.11951e-08
2.12622e-08
2.13049e-08
2.13666e-08
2.14222e-08
2.14928e-08
2.1561e-08
2.15993e-08
2.16318e-08
2.16826e-08
2.17395e-08
2.17656e-08
2.1794e-08
2.18139e-08
2.18548e-08
2.1883e-08
2.19037e-08
2.1927e-08
2.19572e-08
2.19877e-08
2.20029e-08
2.20287e-08
2.2051e-08
2.20732e-08
2.20944e-08
2.21179e-08
2.21444e-08
2.21763e-08
2.22092e-08
2.22453e-08
2.22835e-08
2.23195e-08
2.23558e-08
2.2404e-08
2.24644e-08
2.25252e-08
2.25838e-08
2.26375e-08
2.2712e-08
2.28014e-08
2.28889e-08
2.29672e-08
2.30541e-08
2.31566e-08
2.3254e-08
2.33359e-08
2.34132e-08
2.35034e-08
2.35961e-08
2.36811e-08
2.37488e-08
2.38173e-08
2.38962e-08
2.3968e-08
2.40314e-08
2.40883e-08
2.41423e-08
2.41962e-08
2.42428e-08
2.42852e-08
2.43207e-08
2.43481e-08
2.43751e-08
2.43966e-08
2.44119e-08
2.44159e-08
2.44167e-08
2.44137e-08
2.4305e-08
2.3447e-08
2.26378e-08
2.18053e-08
2.10597e-08
2.03728e-08
1.97487e-08
1.91516e-08
1.85608e-08
1.80143e-08
1.75442e-08
1.7084e-08
1.66225e-08
1.61875e-08
1.57853e-08
1.54049e-08
1.50564e-08
1.4751e-08
1.44225e-08
1.41096e-08
1.38334e-08
1.35919e-08
1.33456e-08
1.31002e-08
1.28884e-08
1.26807e-08
1.25027e-08
1.23252e-08
1.21463e-08
1.19913e-08
1.18354e-08
1.16882e-08
1.15732e-08
1.14565e-08
1.13354e-08
1.1226e-08
1.11254e-08
1.10336e-08
1.09427e-08
1.08704e-08
1.08018e-08
1.07301e-08
1.0667e-08
1.06098e-08
1.05575e-08
1.05171e-08
1.04816e-08
1.04401e-08
1.04028e-08
1.0376e-08
1.03557e-08
1.03344e-08
1.03183e-08
1.03062e-08
1.02967e-08
1.02907e-08
1.02911e-08
1.02914e-08
1.02895e-08
1.02969e-08
1.03089e-08
1.03198e-08
1.0334e-08
1.03506e-08
1.03703e-08
1.03908e-08
1.04116e-08
1.04349e-08
1.04668e-08
1.04964e-08
1.05235e-08
1.05547e-08
1.05905e-08
1.06278e-08
1.0663e-08
1.07007e-08
1.074e-08
1.07802e-08
1.08225e-08
1.08663e-08
1.09128e-08
1.09603e-08
1.1007e-08
1.10546e-08
1.11031e-08
1.11526e-08
1.1203e-08
1.12552e-08
1.13085e-08
1.13632e-08
1.14182e-08
1.14733e-08
1.15293e-08
1.15864e-08
1.16443e-08
1.17037e-08
1.17642e-08
1.18247e-08
1.18853e-08
1.19467e-08
1.20092e-08
1.20724e-08
1.21367e-08
1.22021e-08
1.22676e-08
1.23334e-08
1.23999e-08
1.24675e-08
1.25357e-08
1.26045e-08
1.26739e-08
1.2745e-08
1.2818e-08
1.28929e-08
1.29698e-08
1.30486e-08
1.31295e-08
1.32128e-08
1.32979e-08
1.33849e-08
1.34743e-08
1.3566e-08
1.36597e-08
1.37555e-08
1.38536e-08
1.38308e-08
1.37643e-08
1.36991e-08
1.36352e-08
1.35725e-08
1.35112e-08
1.34511e-08
1.33923e-08
1.33347e-08
1.32783e-08
1.32231e-08
1.31691e-08
1.31162e-08
1.30644e-08
1.30138e-08
1.29643e-08
1.29158e-08
1.28682e-08
1.28216e-08
1.27759e-08
1.2731e-08
1.2687e-08
1.26439e-08
1.26016e-08
1.256e-08
1.25192e-08
1.24792e-08
1.24399e-08
1.24015e-08
1.23637e-08
1.23266e-08
1.22902e-08
1.22544e-08
1.22193e-08
1.21847e-08
1.21508e-08
1.21175e-08
1.20846e-08
1.20523e-08
1.20206e-08
1.19893e-08
1.19586e-08
1.19284e-08
1.18988e-08
1.18696e-08
1.18409e-08
1.18127e-08
1.17848e-08
1.17574e-08
1.17304e-08
1.17038e-08
1.16777e-08
1.16521e-08
1.16268e-08
1.16019e-08
1.15773e-08
1.15532e-08
1.15294e-08
1.1506e-08
1.14829e-08
1.14602e-08
1.14378e-08
1.14157e-08
1.1394e-08
1.13727e-08
1.13517e-08
1.1331e-08
1.13107e-08
1.12906e-08
1.12709e-08
1.12515e-08
1.12325e-08
1.12137e-08
1.11953e-08
1.11772e-08
1.11594e-08
1.11419e-08
1.11247e-08
1.11078e-08
1.10912e-08
1.10749e-08
1.10589e-08
1.10431e-08
1.10276e-08
1.10125e-08
1.09976e-08
1.0983e-08
1.09686e-08
1.09545e-08
1.09407e-08
1.09271e-08
1.09138e-08
1.09008e-08
1.0888e-08
1.08754e-08
1.08631e-08
1.08511e-08
1.08393e-08
1.08277e-08
1.08164e-08
1.08053e-08
1.07945e-08
1.07838e-08
1.07734e-08
1.07632e-08
1.07533e-08
1.07435e-08
1.07339e-08
1.07246e-08
1.07154e-08
1.07061e-08
1.06974e-08
1.06892e-08
1.06804e-08
1.06732e-08
1.06649e-08
1.06612e-08
1.06533e-08
1.06473e-08
1.06404e-08
1.06339e-08
1.06274e-08
1.0621e-08
1.06148e-08
1.06086e-08
1.06027e-08
1.05969e-08
1.05912e-08
1.05855e-08
1.05801e-08
1.0575e-08
1.05697e-08
1.0565e-08
1.05601e-08
1.05565e-08
1.05521e-08
1.05481e-08
1.0544e-08
1.05402e-08
1.05364e-08
1.05328e-08
1.05293e-08
1.05262e-08
1.05228e-08
1.05197e-08
1.05174e-08
1.05141e-08
1.05118e-08
1.05088e-08
1.05039e-08
1.0502e-08
1.05002e-08
1.04953e-08
1.05037e-08
1.04981e-08
1.05391e-08
1.05325e-08
1.05406e-08
1.05439e-08
1.05454e-08
1.05457e-08
1.05454e-08
1.05444e-08
1.05431e-08
1.05415e-08
1.05397e-08
1.05379e-08
1.05361e-08
1.05345e-08
1.05329e-08
1.05312e-08
1.05296e-08
1.0528e-08
1.05263e-08
1.05248e-08
1.05232e-08
1.05217e-08
1.05201e-08
1.05185e-08
1.05169e-08
1.05153e-08
1.05138e-08
1.05122e-08
1.05107e-08
1.05092e-08
1.05077e-08
1.05063e-08
1.0505e-08
1.05037e-08
1.05025e-08
1.05014e-08
1.05004e-08
1.04995e-08
1.04987e-08
1.04981e-08
1.04976e-08
1.04972e-08
1.04968e-08
1.04963e-08
1.04957e-08
1.04949e-08
1.0494e-08
1.04931e-08
1.04924e-08
1.04919e-08
1.04918e-08
1.04922e-08
1.0493e-08
1.04938e-08
1.04943e-08
1.04941e-08
1.04936e-08
1.04933e-08
1.04938e-08
1.04949e-08
1.04956e-08
1.04949e-08
1.04928e-08
1.04904e-08
1.04891e-08
1.04891e-08
1.04884e-08
1.04864e-08
1.04839e-08
1.04832e-08
1.04847e-08
1.04851e-08
1.04847e-08
1.0486e-08
1.04896e-08
1.04915e-08
1.0491e-08
1.04906e-08
1.04882e-08
1.04946e-08
1.04802e-08
3.78882e-09
1.2392e-08
1.17444e-08
1.36874e-08
8.19546e-09
1.21522e-08
1.82717e-08
1.45678e-08
1.25495e-08
1.25071e-08
1.22194e-08
1.17324e-08
1.12576e-08
1.09122e-08
1.06749e-08
1.03094e-08
9.93243e-09
9.82643e-09
9.64705e-09
9.26958e-09
9.11341e-09
9.08343e-09
9.11855e-09
8.73578e-09
8.45548e-09
8.40465e-09
8.54264e-09
8.68048e-09
8.20901e-09
7.47102e-09
7.06858e-09
7.65842e-09
8.57086e-09
8.86101e-09
8.23562e-09
7.3055e-09
7.36062e-09
8.01589e-09
8.44119e-09
8.03916e-09
7.4009e-09
7.54815e-09
8.18906e-09
8.42101e-09
8.142e-09
7.61185e-09
7.44518e-09
7.74383e-09
8.08853e-09
8.1536e-09
8.19604e-09
8.18927e-09
8.29634e-09
8.38511e-09
8.86952e-09
9.34138e-09
8.96154e-09
8.2345e-09
8.26215e-09
9.28536e-09
9.63141e-09
8.79986e-09
8.38954e-09
8.70771e-09
9.96525e-09
1.0262e-08
1.04084e-08
1.10092e-08
1.06191e-08
1.01176e-08
1.08039e-08
1.18607e-08
1.18837e-08
1.21425e-08
1.24594e-08
1.19742e-08
1.13611e-08
1.96717e-08
1.43308e-08
1.29349e-08
4.68984e-09
5.27503e-09
1.47926e-08
1.20598e-08
1.02765e-07
2.99965e-08
3.10327e-08
4.11809e-08
5.4743e-08
5.00415e-08
5.98551e-08
6.91332e-08
7.23224e-08
7.36694e-08
7.36153e-08
6.39642e-08
5.8051e-08
5.16688e-08
4.83447e-08
5.1471e-08
4.29856e-08
3.46895e-08
4.30855e-08
7.1444e-08
8.5139e-08
8.70132e-08
7.81624e-08
1.3343e-07
1.09658e-07
1.26836e-07
5.02804e-07
5.36812e-07
2.18121e-07
1.55211e-07
1.26783e-07
9.63229e-08
1.05008e-07
9.02415e-08
5.84299e-08
4.11168e-08
4.92638e-08
1.06737e-07
1.24795e-07
1.51625e-07
1.81527e-07
2.3075e-07
3.12936e-07
3.61423e-07
6.73992e-07
6.63723e-07
7.52671e-07
7.10974e-07
7.02135e-07
7.07023e-07
7.30605e-07
6.68627e-07
6.06372e-07
6.84053e-07
6.93801e-07
6.55835e-07
4.11742e-07
6.53281e-07
6.31822e-07
3.36704e-07
3.20914e-07
4.13257e-07
3.99573e-07
2.56752e-07
2.20496e-07
2.67536e-07
2.46066e-07
2.17098e-07
2.36143e-07
2.11491e-07
1.76906e-07
1.74979e-07
1.89126e-07
1.90349e-07
1.6433e-07
1.48534e-07
1.45683e-07
1.54217e-07
1.55735e-07
1.36881e-07
1.2562e-07
1.276e-07
1.32968e-07
1.28425e-07
1.16578e-07
1.11674e-07
1.18869e-07
1.20708e-07
1.08648e-07
1.04516e-07
1.10671e-07
1.09201e-07
1.04214e-07
1.04733e-07
1.05671e-07
1.04596e-07
1.02438e-07
1.01798e-07
1.0055e-07
1.00033e-07
1.01521e-07
1.03701e-07
1.04711e-07
1.03119e-07
1.02587e-07
1.03004e-07
1.0363e-07
1.04163e-07
1.05544e-07
1.08399e-07
1.11088e-07
1.11073e-07
1.09789e-07
1.12273e-07
1.17407e-07
1.20488e-07
1.22106e-07
1.22463e-07
1.2368e-07
1.31442e-07
1.36136e-07
1.38942e-07
1.39118e-07
1.4218e-07
1.52815e-07
1.59409e-07
1.62255e-07
1.65225e-07
1.78793e-07
1.87885e-07
1.95811e-07
2.08426e-07
2.17091e-07
2.30472e-07
2.42478e-07
2.54052e-07
2.84723e-07
3.08199e-07
3.35805e-07
3.62425e-07
3.82471e-07
4.43674e-07
5.04098e-07
5.705e-07
6.79844e-07
8.18045e-07
9.51759e-07
1.11959e-06
1.13332e-06
1.13706e-06
1.13943e-06
1.14124e-06
1.14324e-06
1.14478e-06
1.14616e-06
9.43701e-07
7.53345e-07
6.73593e-07
6.24946e-07
5.6203e-07
5.03748e-07
4.76872e-07
4.72003e-07
4.39953e-07
4.05055e-07
3.82182e-07
3.70166e-07
3.56065e-07
3.44481e-07
3.36758e-07
3.2616e-07
3.15514e-07
3.08578e-07
3.07647e-07
3.05778e-07
2.93902e-07
2.86795e-07
2.83529e-07
2.81987e-07
2.79967e-07
2.76409e-07
2.7423e-07
2.72442e-07
2.69673e-07
2.67568e-07
2.66512e-07
2.65702e-07
2.65383e-07
2.65838e-07
2.65663e-07
2.66142e-07
2.6541e-07
2.64196e-07
2.63771e-07
2.63846e-07
2.64076e-07
2.64966e-07
2.66922e-07
2.67219e-07
2.671e-07
2.67795e-07
2.68741e-07
2.6971e-07
2.70737e-07
2.71845e-07
2.73062e-07
2.74283e-07
2.75483e-07
2.76944e-07
2.78587e-07
2.80306e-07
2.82211e-07
2.8431e-07
2.86468e-07
2.88624e-07
2.90902e-07
2.93221e-07
2.95544e-07
2.97971e-07
3.00429e-07
3.02881e-07
3.05371e-07
3.07909e-07
3.10492e-07
3.13162e-07
3.15883e-07
3.18632e-07
3.21424e-07
3.24271e-07
3.27202e-07
3.30209e-07
3.33249e-07
3.36328e-07
3.39453e-07
3.42611e-07
3.45789e-07
3.49001e-07
3.52308e-07
3.55723e-07
3.59178e-07
3.62613e-07
3.65996e-07
3.69345e-07
3.72712e-07
3.76055e-07
3.7927e-07
3.82316e-07
3.85244e-07
3.88158e-07
3.91061e-07
3.93834e-07
3.96459e-07
3.99065e-07
4.0181e-07
4.04681e-07
4.07498e-07
4.10181e-07
4.12783e-07
4.15385e-07
4.17989e-07
4.20535e-07
4.23049e-07
4.25578e-07
4.28096e-07
4.30579e-07
4.33074e-07
4.35642e-07
4.38244e-07
4.4083e-07
4.43449e-07
4.46144e-07
4.48879e-07
4.51622e-07
4.54433e-07
4.57419e-07
4.60584e-07
4.63803e-07
4.67004e-07
4.70256e-07
4.73665e-07
4.77227e-07
4.80872e-07
4.84544e-07
4.88225e-07
4.9194e-07
4.95703e-07
4.99526e-07
5.03459e-07
5.07594e-07
5.12005e-07
5.16652e-07
5.21381e-07
5.26118e-07
5.3097e-07
5.36093e-07
5.41482e-07
5.47051e-07
5.52895e-07
5.59121e-07
5.65685e-07
5.724e-07
5.79085e-07
5.85724e-07
5.92346e-07
5.9914e-07
6.06349e-07
6.14134e-07
6.22499e-07
6.3129e-07
6.40243e-07
6.49175e-07
6.58076e-07
6.66994e-07
6.76114e-07
6.85624e-07
6.95585e-07
7.05987e-07
7.16712e-07
7.27479e-07
7.3804e-07
7.48746e-07
7.60254e-07
7.73078e-07
7.86445e-07
8.00754e-07
8.15471e-07
8.29524e-07
8.43284e-07
8.54845e-07
8.69035e-07
8.80054e-07
8.96965e-07
9.22474e-07
9.38457e-07
9.44568e-07
9.64047e-07
9.29391e-07
9.57386e-07
1.08183e-06
1.11177e-06
1.12051e-06
1.12097e-06
1.121e-06
1.12133e-06
1.12188e-06
1.1224e-06
1.12264e-06
1.12255e-06
1.12293e-06
1.12293e-06
1.12287e-06
1.12253e-06
1.12237e-06
1.12254e-06
1.12254e-06
1.12302e-06
1.12269e-06
1.12189e-06
1.12197e-06
1.12208e-06
1.12259e-06
1.12239e-06
1.1226e-06
1.12327e-06
1.12361e-06
1.12386e-06
1.12344e-06
1.1238e-06
1.12322e-06
1.12295e-06
1.12247e-06
1.12314e-06
1.12362e-06
1.12279e-06
1.1241e-06
1.12456e-06
1.12208e-06
1.12207e-06
1.11726e-06
9.23033e-07
9.86562e-07
3.8722e-07
3.57274e-07
9.38509e-07
6.95235e-07
7.82985e-07
1.05695e-06
1.096e-06
1.10037e-06
1.10391e-06
1.10641e-06
1.10705e-06
1.10693e-06
1.10714e-06
1.10762e-06
1.10809e-06
1.10937e-06
1.11175e-06
1.11411e-06
1.11541e-06
1.11578e-06
1.11618e-06
1.11724e-06
1.11869e-06
1.11997e-06
1.12071e-06
1.12084e-06
1.12043e-06
1.11973e-06
1.11898e-06
1.1184e-06
1.11814e-06
1.1182e-06
1.11864e-06
1.11952e-06
1.12083e-06
1.12254e-06
1.1242e-06
1.12456e-06
1.12461e-06
1.12464e-06
1.12463e-06
1.12461e-06
1.12458e-06
1.12456e-06
1.12455e-06
1.12456e-06
1.12457e-06
1.12455e-06
1.12452e-06
1.12429e-06
1.12388e-06
1.12397e-06
1.12442e-06
1.12459e-06
1.12463e-06
1.12464e-06
1.12462e-06
1.12459e-06
1.12454e-06
1.12431e-06
1.12352e-06
1.12458e-06
1.1248e-06
1.12485e-06
1.12464e-06
1.11905e-06
1.11345e-06
1.11613e-06
1.12326e-06
1.12419e-06
1.11873e-06
1.11211e-06
1.11624e-06
1.12465e-06
1.12482e-06
1.12363e-06
1.12323e-06
1.12492e-06
1.1249e-06
1.12446e-06
1.11888e-06
1.12156e-06
1.11401e-06
1.1139e-06
1.09733e-06
3.75101e-09
1.20297e-08
1.0957e-08
1.10661e-08
6.47313e-09
9.19483e-09
1.3409e-08
1.10028e-08
9.69848e-09
9.6507e-09
9.35491e-09
8.96973e-09
8.64353e-09
8.48014e-09
8.28562e-09
7.96455e-09
7.67197e-09
7.36615e-09
7.23458e-09
7.63538e-09
7.84267e-09
7.29286e-09
6.70564e-09
6.62836e-09
7.03843e-09
7.39521e-09
7.16052e-09
6.51368e-09
6.41287e-09
6.74549e-09
6.08147e-09
5.78705e-09
6.38004e-09
7.06692e-09
7.42152e-09
6.48797e-09
5.84738e-09
6.27399e-09
6.98335e-09
7.18837e-09
7.08185e-09
6.31716e-09
6.09768e-09
6.62386e-09
7.04027e-09
6.76239e-09
6.37608e-09
6.40885e-09
6.82464e-09
6.88376e-09
6.75879e-09
6.96406e-09
7.52753e-09
7.63731e-09
7.72751e-09
7.91836e-09
7.89082e-09
7.8773e-09
8.49691e-09
8.69297e-09
7.84991e-09
7.50192e-09
8.37512e-09
9.13398e-09
9.19196e-09
8.26165e-09
8.67121e-09
1.07556e-08
1.15299e-08
1.05584e-08
1.03854e-08
1.05564e-08
1.07305e-08
1.20449e-08
1.36859e-08
1.2399e-08
1.31471e-08
2.3072e-08
3.0278e-08
1.44523e-08
1.90095e-08
1.12738e-08
1.37732e-08
5.32886e-09
5.99942e-09
1.32565e-08
1.22312e-08
2.0112e-08
7.72626e-08
6.53143e-08
3.86779e-08
5.19312e-08
5.03818e-08
8.97369e-08
8.07749e-08
5.98989e-08
4.94305e-08
4.78871e-08
4.83719e-08
5.56622e-08
5.84532e-08
6.59183e-08
4.76058e-08
3.59911e-08
2.98004e-08
3.77718e-08
4.39489e-08
5.79247e-08
7.91122e-08
7.87679e-08
7.84648e-08
1.30418e-07
2.09854e-07
4.1465e-07
1.74789e-07
1.34677e-07
1.31773e-07
1.54782e-07
9.25157e-08
1.09476e-07
8.72782e-08
6.08024e-08
3.92905e-08
4.32621e-08
9.0297e-08
1.16166e-07
1.63335e-07
2.3019e-07
3.64075e-07
3.42373e-07
4.97155e-07
4.47361e-07
6.87609e-07
9.19508e-07
1.76983e-06
4.66839e-07
5.74599e-07
2.15359e-06
7.79106e-07
3.85495e-07
4.58462e-07
1.02991e-06
4.76847e-07
2.90074e-07
3.911e-07
4.47401e-07
2.99399e-07
2.15782e-07
2.4565e-07
2.89619e-07
2.48145e-07
2.45746e-07
1.9712e-07
1.60413e-07
1.76046e-07
1.99563e-07
1.95525e-07
1.66861e-07
1.46947e-07
1.53435e-07
1.52267e-07
1.40286e-07
1.35849e-07
1.30508e-07
1.29687e-07
1.28293e-07
1.22433e-07
1.21014e-07
1.16303e-07
1.15024e-07
1.14547e-07
1.1053e-07
1.07335e-07
1.06546e-07
1.09746e-07
1.05177e-07
1.00625e-07
1.03536e-07
1.04107e-07
1.02697e-07
9.9847e-08
9.92791e-08
9.92128e-08
9.99165e-08
1.00433e-07
1.01119e-07
1.00999e-07
1.00869e-07
1.00602e-07
1.0136e-07
1.01317e-07
1.03326e-07
1.0366e-07
1.05543e-07
1.10653e-07
1.1106e-07
1.08653e-07
1.10522e-07
1.14372e-07
1.17259e-07
1.20767e-07
1.21012e-07
1.23531e-07
1.2953e-07
1.33386e-07
1.33146e-07
1.36262e-07
1.46118e-07
1.5209e-07
1.55665e-07
1.57775e-07
1.6613e-07
1.75668e-07
1.84199e-07
1.91609e-07
2.02844e-07
2.16914e-07
2.26684e-07
2.39192e-07
2.58355e-07
2.76693e-07
2.84022e-07
3.23967e-07
3.65235e-07
3.94139e-07
4.33652e-07
4.73468e-07
5.31246e-07
5.98005e-07
7.43506e-07
8.75268e-07
9.6895e-07
1.08934e-06
1.23396e-06
1.44135e-06
1.49494e-06
1.27385e-06
1.17087e-06
1.02334e-06
7.73247e-07
6.60042e-07
6.42324e-07
6.06568e-07
5.54938e-07
4.95188e-07
4.76716e-07
4.55672e-07
4.14439e-07
3.90914e-07
3.79252e-07
3.68869e-07
3.51951e-07
3.38136e-07
3.28504e-07
3.20983e-07
3.12277e-07
3.10351e-07
3.10488e-07
2.9965e-07
2.90114e-07
2.85477e-07
2.83572e-07
2.79515e-07
2.76086e-07
2.73596e-07
2.72223e-07
2.71841e-07
2.69668e-07
2.68716e-07
2.68629e-07
2.67123e-07
2.65534e-07
2.62014e-07
2.61127e-07
2.63854e-07
2.65134e-07
2.64049e-07
2.63408e-07
2.63414e-07
2.6334e-07
2.6392e-07
2.65461e-07
2.65953e-07
2.66332e-07
2.67382e-07
2.68395e-07
2.69184e-07
2.70159e-07
2.71737e-07
2.73398e-07
2.74796e-07
2.76124e-07
2.77476e-07
2.78759e-07
2.80249e-07
2.82086e-07
2.8421e-07
2.8608e-07
2.8801e-07
2.90164e-07
2.92361e-07
2.94582e-07
2.96983e-07
2.9943e-07
3.01967e-07
3.04762e-07
3.07492e-07
3.1009e-07
3.12943e-07
3.15999e-07
3.18902e-07
3.21755e-07
3.24704e-07
3.27697e-07
3.30715e-07
3.33794e-07
3.36904e-07
3.40043e-07
3.43294e-07
3.46618e-07
3.49985e-07
3.53396e-07
3.56839e-07
3.6036e-07
3.6386e-07
3.67227e-07
3.70409e-07
3.73477e-07
3.76551e-07
3.79634e-07
3.8264e-07
3.85576e-07
3.88553e-07
3.91703e-07
3.94999e-07
3.98129e-07
4.00985e-07
4.03705e-07
4.06415e-07
4.09086e-07
4.11578e-07
4.13901e-07
4.16239e-07
4.18658e-07
4.21116e-07
4.23628e-07
4.26297e-07
4.29067e-07
4.31818e-07
4.34548e-07
4.37234e-07
4.39794e-07
4.42189e-07
4.445e-07
4.46812e-07
4.49173e-07
4.51651e-07
4.54361e-07
4.57401e-07
4.60752e-07
4.64229e-07
4.6765e-07
4.7097e-07
4.74205e-07
4.77384e-07
4.80568e-07
4.83867e-07
4.87384e-07
4.91173e-07
4.95269e-07
4.99542e-07
5.039e-07
5.08309e-07
5.12781e-07
5.17313e-07
5.21804e-07
5.26214e-07
5.30782e-07
5.35907e-07
5.41734e-07
5.47988e-07
5.544e-07
5.60817e-07
5.67105e-07
5.73202e-07
5.79258e-07
5.85551e-07
5.92241e-07
5.99437e-07
6.07279e-07
6.15727e-07
6.2446e-07
6.3305e-07
6.41198e-07
6.49053e-07
6.5703e-07
6.65531e-07
6.75006e-07
6.85548e-07
6.96711e-07
7.07745e-07
7.1812e-07
7.27827e-07
7.37582e-07
7.47886e-07
7.60292e-07
7.74954e-07
7.8964e-07
8.02843e-07
8.15741e-07
8.2807e-07
8.38356e-07
8.53787e-07
8.78383e-07
8.94434e-07
8.98344e-07
9.17818e-07
8.85122e-07
9.13145e-07
1.04352e-06
1.07292e-06
1.12564e-06
1.15283e-06
1.61009e-06
1.6188e-06
1.20491e-06
1.21777e-06
1.15034e-06
1.17194e-06
1.10225e-06
1.13152e-06
1.22341e-06
1.25142e-06
1.29004e-06
1.2861e-06
1.31894e-06
1.38495e-06
1.44079e-06
1.47259e-06
1.49835e-06
1.52337e-06
1.67992e-06
1.69726e-06
1.57817e-06
1.60874e-06
1.61286e-06
1.64524e-06
1.5909e-06
1.66319e-06
1.64948e-06
1.76065e-06
1.92396e-06
2.03642e-06
1.83068e-06
2.08881e-06
2.26636e-06
1.34794e-06
1.66143e-06
1.78561e-06
2.70157e-06
8.83537e-07
8.78665e-07
3.23992e-07
3.36332e-07
1.03522e-06
1.00165e-06
8.98628e-07
8.30067e-07
9.10411e-07
1.38234e-06
2.95744e-06
4.23079e-06
4.16693e-06
4.75958e-06
5.73802e-06
6.26651e-06
6.13591e-06
6.02448e-06
5.82274e-06
5.51286e-06
5.34252e-06
5.36855e-06
5.42989e-06
5.29063e-06
4.93374e-06
4.55925e-06
4.29796e-06
4.14286e-06
4.0744e-06
4.07776e-06
4.13412e-06
4.21165e-06
4.26745e-06
4.26904e-06
4.20228e-06
4.0807e-06
3.9421e-06
3.82222e-06
3.74981e-06
3.74059e-06
3.79147e-06
3.88e-06
3.96717e-06
4.01319e-06
3.98979e-06
3.90047e-06
3.78259e-06
3.68281e-06
3.63537e-06
3.65438e-06
3.73284e-06
3.83878e-06
3.92425e-06
3.95544e-06
3.94505e-06
3.9485e-06
4.01548e-06
4.14009e-06
4.24621e-06
4.24233e-06
4.13273e-06
4.01837e-06
3.97052e-06
4.02845e-06
4.21707e-06
4.47903e-06
4.82615e-06
5.42896e-06
6.00611e-06
5.86989e-06
5.15064e-06
4.50333e-06
4.70983e-06
6.11822e-06
7.02247e-06
5.77673e-06
4.34091e-06
4.61548e-06
7.34126e-06
9.05775e-06
6.27039e-06
5.41332e-06
9.05834e-06
9.05831e-06
6.60777e-06
5.50475e-06
8.184e-06
5.75583e-06
3.14819e-06
5.31332e-06
3.72779e-09
1.2007e-08
1.08517e-08
1.13406e-08
6.46767e-09
8.93848e-09
1.26595e-08
1.0191e-08
8.93903e-09
8.87738e-09
8.64265e-09
8.35692e-09
8.15662e-09
8.05406e-09
7.85432e-09
7.6003e-09
7.38726e-09
7.12668e-09
7.12135e-09
7.57756e-09
7.68503e-09
7.06734e-09
6.52832e-09
6.62745e-09
7.13155e-09
7.38588e-09
6.80618e-09
6.26133e-09
6.51457e-09
7.31637e-09
7.25831e-09
6.25629e-09
5.8176e-09
6.02713e-09
6.78421e-09
7.10701e-09
6.44684e-09
6.1124e-09
6.18058e-09
6.64983e-09
7.33523e-09
6.43316e-09
5.84846e-09
6.01233e-09
6.54105e-09
6.87122e-09
6.72831e-09
6.58895e-09
6.50937e-09
6.44602e-09
6.63078e-09
7.10632e-09
7.54054e-09
7.54055e-09
7.34915e-09
7.38626e-09
7.77374e-09
8.61383e-09
8.88497e-09
8.38782e-09
7.93819e-09
8.03024e-09
8.83218e-09
9.26574e-09
9.06718e-09
8.52267e-09
8.5155e-09
9.70689e-09
1.15323e-08
1.18509e-08
1.06462e-08
9.68578e-09
9.67785e-09
1.10011e-08
1.36297e-08
1.51374e-08
1.75061e-08
1.64315e-08
1.2518e-08
1.34084e-08
2.10463e-08
1.94993e-08
2.42341e-08
2.71468e-08
1.22828e-08
1.10416e-08
1.61796e-08
6.88518e-09
8.49005e-09
2.4676e-08
1.58116e-08
5.79246e-08
5.57096e-08
4.20613e-08
6.3304e-08
5.65315e-08
6.96389e-08
6.46874e-08
5.82352e-08
5.92597e-08
5.77782e-08
4.86203e-08
5.45291e-08
5.06889e-08
7.11177e-08
6.05136e-08
3.55925e-08
2.8119e-08
2.66582e-08
3.31244e-08
5.05677e-08
4.73138e-08
6.43041e-08
9.14255e-08
1.01415e-07
1.24734e-07
4.01184e-07
9.37514e-07
2.85544e-07
1.19287e-07
1.42864e-07
9.66341e-08
8.95779e-08
7.03232e-08
5.74766e-08
3.80556e-08
4.46142e-08
9.28965e-08
1.05828e-07
1.46588e-07
2.26841e-07
3.33267e-07
4.8845e-07
4.71215e-07
4.44185e-07
3.58676e-07
6.58998e-07
2.89216e-06
4.33115e-07
3.26862e-07
5.47542e-07
8.00115e-07
3.7073e-07
3.16502e-07
4.12153e-07
3.20557e-07
2.42615e-07
2.46541e-07
3.16558e-07
2.635e-07
2.17847e-07
2.34721e-07
1.86523e-07
1.56217e-07
1.78363e-07
2.02091e-07
1.84763e-07
1.53321e-07
1.40453e-07
1.53605e-07
1.60383e-07
1.34298e-07
1.21435e-07
1.24923e-07
1.36493e-07
1.31444e-07
1.14679e-07
1.12093e-07
1.17452e-07
1.21287e-07
1.09472e-07
1.03439e-07
1.10314e-07
1.09656e-07
1.03408e-07
1.01594e-07
1.03525e-07
1.03683e-07
9.94385e-08
9.87183e-08
9.9173e-08
9.9082e-08
9.86958e-08
9.96576e-08
1.00483e-07
9.94567e-08
9.70124e-08
9.82794e-08
9.99397e-08
1.00806e-07
1.00891e-07
1.02562e-07
1.02792e-07
1.0337e-07
1.07277e-07
1.10358e-07
1.1008e-07
1.10786e-07
1.11009e-07
1.14051e-07
1.19312e-07
1.20808e-07
1.24233e-07
1.24808e-07
1.27576e-07
1.30646e-07
1.38438e-07
1.50024e-07
1.48808e-07
1.49415e-07
1.57124e-07
1.6785e-07
1.7049e-07
1.78e-07
1.86895e-07
1.99416e-07
2.10975e-07
2.2003e-07
2.3707e-07
2.56843e-07
2.67713e-07
2.76117e-07
3.0318e-07
3.45082e-07
3.88885e-07
4.22048e-07
4.47273e-07
4.83609e-07
5.42224e-07
6.28828e-07
7.24918e-07
8.07225e-07
8.40374e-07
8.9463e-07
1.02016e-06
1.11077e-06
1.05416e-06
9.3461e-07
7.52183e-07
6.4194e-07
6.25617e-07
6.37402e-07
5.66302e-07
5.14776e-07
4.91583e-07
4.70065e-07
4.1876e-07
3.82332e-07
3.77823e-07
3.80755e-07
3.63256e-07
3.48398e-07
3.36028e-07
3.22191e-07
3.16864e-07
3.12368e-07
3.09235e-07
3.01156e-07
2.88611e-07
2.8784e-07
2.85767e-07
2.82645e-07
2.78965e-07
2.74079e-07
2.71288e-07
2.70321e-07
2.70408e-07
2.69529e-07
2.69301e-07
2.69261e-07
2.67818e-07
2.65021e-07
2.59475e-07
2.58079e-07
2.61081e-07
2.63229e-07
2.63772e-07
2.63994e-07
2.63945e-07
2.63759e-07
2.63616e-07
2.6333e-07
2.64429e-07
2.65917e-07
2.67072e-07
2.68115e-07
2.6905e-07
2.70142e-07
2.718e-07
2.73573e-07
2.75063e-07
2.76343e-07
2.77693e-07
2.79057e-07
2.80499e-07
2.82168e-07
2.83996e-07
2.85699e-07
2.87567e-07
2.89602e-07
2.9171e-07
2.9395e-07
2.96357e-07
2.98872e-07
3.01524e-07
3.04394e-07
3.0724e-07
3.10015e-07
3.13029e-07
3.16183e-07
3.19191e-07
3.2215e-07
3.25206e-07
3.28278e-07
3.31321e-07
3.34413e-07
3.37572e-07
3.40823e-07
3.44227e-07
3.47709e-07
3.51212e-07
3.54675e-07
3.58071e-07
3.61517e-07
3.64983e-07
3.68345e-07
3.71478e-07
3.74421e-07
3.77366e-07
3.80449e-07
3.83552e-07
3.86546e-07
3.89522e-07
3.92718e-07
3.96248e-07
3.99759e-07
4.02833e-07
4.05434e-07
4.07882e-07
4.10358e-07
4.12725e-07
4.1494e-07
4.17147e-07
4.19481e-07
4.21922e-07
4.24447e-07
4.27138e-07
4.29965e-07
4.32793e-07
4.35568e-07
4.38244e-07
4.40763e-07
4.43108e-07
4.45338e-07
4.47558e-07
4.49835e-07
4.52229e-07
4.54828e-07
4.57717e-07
4.60925e-07
4.64304e-07
4.67681e-07
4.70916e-07
4.73942e-07
4.76854e-07
4.79827e-07
4.83039e-07
4.86591e-07
4.90472e-07
4.9467e-07
4.99104e-07
5.03638e-07
5.08088e-07
5.124e-07
5.16703e-07
5.2112e-07
5.2564e-07
5.30404e-07
5.3573e-07
5.4167e-07
5.47867e-07
5.53982e-07
5.59994e-07
5.65927e-07
5.71851e-07
5.78098e-07
5.84935e-07
5.92361e-07
6.00173e-07
6.08264e-07
6.16504e-07
6.24684e-07
6.32549e-07
6.40056e-07
6.47653e-07
6.55833e-07
6.64839e-07
6.74786e-07
6.8546e-07
6.96207e-07
7.06647e-07
7.1624e-07
7.26193e-07
7.37096e-07
7.4816e-07
7.58604e-07
7.73005e-07
7.83474e-07
8.00191e-07
8.21594e-07
8.39303e-07
8.5329e-07
8.51689e-07
8.69529e-07
8.39617e-07
8.68807e-07
1.00879e-06
1.03813e-06
1.07137e-06
1.09438e-06
1.56985e-06
1.58295e-06
1.14345e-06
1.16277e-06
1.10983e-06
1.11576e-06
1.03015e-06
1.04393e-06
1.12155e-06
1.13797e-06
1.18152e-06
1.19476e-06
1.23081e-06
1.31402e-06
1.35294e-06
1.35183e-06
1.42208e-06
1.46298e-06
1.62585e-06
1.64983e-06
1.50457e-06
1.52259e-06
1.52172e-06
1.5566e-06
1.4928e-06
1.56022e-06
1.53962e-06
1.62754e-06
1.84387e-06
1.90545e-06
1.56318e-06
1.71889e-06
1.05448e-06
1.35028e-06
2.4616e-06
1.7462e-06
2.9878e-06
8.24086e-07
8.32254e-07
2.98934e-07
2.94558e-07
9.20574e-07
7.51683e-07
7.87275e-07
8.73776e-07
9.07923e-07
8.46564e-07
1.15144e-06
1.33692e-06
1.69754e-06
2.00609e-06
2.28451e-06
2.80432e-06
3.39408e-06
3.9019e-06
4.14116e-06
4.29285e-06
4.4655e-06
4.52294e-06
4.49435e-06
4.55297e-06
4.73258e-06
4.88863e-06
4.86572e-06
4.69683e-06
4.50538e-06
4.37717e-06
4.32809e-06
4.34652e-06
4.40747e-06
4.47155e-06
4.49319e-06
4.4369e-06
4.29502e-06
4.10272e-06
3.90662e-06
3.74702e-06
3.65126e-06
3.63253e-06
3.69664e-06
3.82802e-06
3.99038e-06
4.12849e-06
4.18682e-06
4.14536e-06
4.03109e-06
3.8997e-06
3.8029e-06
3.76967e-06
3.80304e-06
3.88312e-06
3.96737e-06
4.00784e-06
3.98912e-06
3.96009e-06
3.99985e-06
4.14822e-06
4.35868e-06
4.48439e-06
4.39663e-06
4.18587e-06
4.03009e-06
4.00448e-06
4.14645e-06
4.49832e-06
4.98353e-06
5.47483e-06
5.90653e-06
5.84182e-06
5.25216e-06
4.68083e-06
4.58116e-06
5.40462e-06
6.49563e-06
5.87595e-06
4.45727e-06
4.2735e-06
6.09055e-06
8.3599e-06
7.2533e-06
6.24557e-06
9.98573e-06
9.98564e-06
7.75701e-06
5.50547e-06
4.92156e-06
7.00216e-06
5.5098e-06
3.55394e-06
4.8351e-06
3.67943e-09
1.18897e-08
1.08302e-08
1.1576e-08
6.53121e-09
8.84515e-09
1.19887e-08
9.56174e-09
8.33595e-09
8.27235e-09
8.13045e-09
7.91988e-09
7.73857e-09
7.61454e-09
7.49996e-09
7.39925e-09
7.28551e-09
7.12606e-09
7.09112e-09
7.27187e-09
7.28657e-09
6.98077e-09
6.70192e-09
6.72911e-09
6.92086e-09
6.98706e-09
6.6771e-09
6.42359e-09
6.58822e-09
7.16889e-09
7.5286e-09
6.91953e-09
6.24105e-09
6.0282e-09
6.3602e-09
6.68425e-09
6.51e-09
6.21302e-09
6.07431e-09
6.18045e-09
6.54399e-09
6.32283e-09
5.98787e-09
5.90971e-09
6.30674e-09
6.76431e-09
6.76568e-09
6.54951e-09
6.46902e-09
6.62838e-09
6.82687e-09
6.90768e-09
7.02963e-09
7.30526e-09
7.16341e-09
7.25251e-09
8.13383e-09
9.16338e-09
8.53092e-09
8.055e-09
8.50067e-09
9.15737e-09
9.1879e-09
8.60914e-09
8.71891e-09
9.56983e-09
9.48106e-09
8.97699e-09
9.53169e-09
1.09696e-08
1.16885e-08
1.07785e-08
9.66426e-09
9.67403e-09
1.1797e-08
1.44547e-08
1.60991e-08
1.52649e-08
1.36347e-08
1.59852e-08
2.083e-08
1.66616e-08
1.43238e-08
1.69276e-08
1.6207e-08
1.47315e-08
3.28761e-08
2.79831e-08
1.59092e-08
1.83801e-08
8.04209e-09
1.02959e-08
4.01886e-08
2.09767e-08
4.6103e-08
6.75498e-08
4.24195e-08
6.01399e-08
5.07109e-08
6.72138e-08
8.44092e-08
8.3218e-08
7.65482e-08
6.32414e-08
6.25969e-08
8.24919e-08
5.51569e-08
4.7422e-08
6.22232e-08
4.33951e-08
2.97359e-08
2.35136e-08
2.98788e-08
5.32213e-08
5.25667e-08
5.84686e-08
7.69944e-08
1.26133e-07
2.14412e-07
8.57457e-07
3.60545e-06
4.02382e-07
1.66898e-07
1.65967e-07
9.60962e-08
9.15984e-08
7.23273e-08
5.4808e-08
3.64161e-08
4.2669e-08
9.26147e-08
1.14763e-07
1.5388e-07
2.40151e-07
1.09951e-06
2.76721e-07
2.78436e-07
2.78255e-07
2.88214e-07
5.54655e-07
9.39246e-07
5.39212e-07
2.99547e-07
2.81882e-07
3.37947e-07
3.00298e-07
2.66325e-07
2.59905e-07
2.74399e-07
2.35922e-07
2.10454e-07
2.1176e-07
1.79291e-07
1.76054e-07
1.83904e-07
1.87009e-07
1.651e-07
1.38331e-07
1.37698e-07
1.48666e-07
1.51911e-07
1.3446e-07
1.20169e-07
1.25327e-07
1.3429e-07
1.22523e-07
1.10185e-07
1.1108e-07
1.17746e-07
1.18352e-07
1.06891e-07
1.01933e-07
1.07867e-07
1.08362e-07
1.0053e-07
1.00626e-07
1.03234e-07
1.01084e-07
9.66044e-08
9.6673e-08
9.93855e-08
9.71807e-08
9.67035e-08
9.87067e-08
9.91979e-08
9.67095e-08
9.39451e-08
9.7384e-08
1.00348e-07
9.9632e-08
9.94063e-08
1.01442e-07
1.03208e-07
1.02308e-07
1.01414e-07
1.05693e-07
1.10345e-07
1.11474e-07
1.10376e-07
1.11382e-07
1.15548e-07
1.20101e-07
1.229e-07
1.22081e-07
1.24762e-07
1.30789e-07
1.37847e-07
1.435e-07
1.44481e-07
1.47308e-07
1.55237e-07
1.63624e-07
1.68211e-07
1.76175e-07
1.82982e-07
1.91428e-07
2.03109e-07
2.13782e-07
2.34012e-07
2.46568e-07
2.54936e-07
2.73458e-07
2.87283e-07
3.21607e-07
3.56044e-07
3.90414e-07
4.30305e-07
4.46167e-07
4.976e-07
5.50042e-07
5.92013e-07
6.63193e-07
7.07978e-07
7.0656e-07
7.91375e-07
8.75227e-07
8.37153e-07
7.41499e-07
6.11151e-07
5.89048e-07
6.32234e-07
6.05516e-07
5.05049e-07
4.64472e-07
4.66543e-07
4.42888e-07
3.87994e-07
3.73481e-07
3.8066e-07
3.73111e-07
3.48354e-07