/*--------------------------------*- C++ -*----------------------------------*\
| =========                 |                                                 |
| \\      /  F ield         | OpenFOAM: The Open Source CFD Toolbox           |
|  \\    /   O peration     | Version:  v2006                                 |
|   \\  /    A nd           | Website:  www.openfoam.com                      |
|    \\/     M anipulation  |                                                 |
\*---------------------------------------------------------------------------*/
FoamFile
{
    version     2.0;
    format      ascii;
    class       volScalarField;
    location    "2.5";
    object      p_rgh;
}
// * * * * * * * * * * * * * * * * * * * * * * * * * * * * * * * * * * * * * //

dimensions      [1 -1 -2 0 0 0 0];


internalField   nonuniform List<scalar> 
33000
(
8484.69
8478.32
8471.1
8464.35
8458.33
8452.13
8445.4
8438.5
8431.59
8424.6
8417.51
8410.31
8402.99
8395.6
8388.13
8380.59
8372.96
8365.25
8357.47
8349.59
8341.65
8333.73
8325.74
8317.68
8309.56
8301.37
8293.2
8285.01
8276.78
8268.47
8260.2
8251.94
8243.64
8235.32
8226.96
8218.67
8210.43
8202.18
8193.92
8185.66
8177.47
8169.33
8161.23
8153.14
8145.07
8137.09
8129.17
8121.3
8113.49
8105.75
8098.08
8090.49
8082.97
8075.53
8068.19
8060.93
8053.76
8046.7
8039.75
8032.91
8026.18
8019.57
8013.07
8006.68
8000.43
7994.31
7988.31
7982.44
7976.72
7971.14
7965.72
7960.45
7955.4
7950.54
7945.9
7941.54
7937.53
7934.06
7930.2
7923.51
7918.96
7914.11
7909.18
7904.53
7899.87
7895.12
7890.65
7886.22
7882
7877.81
7873.83
7869.88
7866.03
7862.29
7858.68
7855.17
7851.77
7848.48
7845.29
7842.2
7839.21
7836.32
7833.54
7830.87
7828.3
7825.83
7823.46
7821.19
7819.02
7816.93
7814.94
7813.03
7811.21
7809.48
7807.82
7806.23
7804.71
7803.25
7801.85
7800.51
7799.22
7797.99
7796.81
7795.69
7794.61
7793.58
7792.6
7791.65
7790.74
7789.88
7789.05
7788.24
7787.47
7786.72
7786.01
7785.32
7784.65
7784.01
7783.39
7782.79
7782.2
7781.64
7781.09
7780.56
7780.04
7779.54
7779.05
7778.57
7778.1
7777.65
7777.2
7776.76
7776.33
7775.9
7775.47
7775.05
7774.64
7774.22
7773.81
7773.4
7772.98
7772.56
7772.15
7771.72
7771.29
7770.86
7770.43
7769.99
7769.54
7769.09
7768.64
7768.19
7767.73
7767.27
7766.82
7766.36
7765.91
7765.47
7765.03
7764.6
7764.17
7763.77
7763.37
7762.98
7762.61
7762.25
7761.91
7761.58
7761.28
7760.99
7760.73
7760.48
7760.26
7760.05
7759.87
7759.71
7759.57
7759.46
7759.37
7759.3
7759.26
7759.24
7759.24
7759.27
7759.32
7759.4
7759.5
7759.62
7759.76
7759.93
7760.13
7760.34
7760.57
7760.83
7761.11
7761.4
7761.72
7762.05
7762.4
7762.77
7763.16
7763.57
7763.98
7764.42
7764.87
7765.33
7765.81
7766.3
7766.81
7767.32
7767.85
7768.38
7768.93
7769.48
7770.04
7770.61
7771.19
7771.77
7772.36
7772.95
7773.55
7774.15
7774.75
7775.36
7775.96
7776.57
7777.18
7777.79
7778.4
7779.01
7779.62
7780.23
7780.84
7781.44
7782.04
7782.65
7783.25
7783.84
7784.44
7785.03
7785.62
7786.2
7786.78
7787.36
7787.94
7788.51
7789.08
7789.64
7790.21
7790.76
7791.32
7791.87
7792.41
7792.96
7793.5
7794.03
7794.57
7795.09
7795.62
7796.14
7796.66
7797.17
7797.68
7798.19
7798.69
7799.19
7799.69
7800.18
7800.67
7801.15
7801.63
7802.11
7802.59
7803.06
7803.52
7803.99
7804.45
7804.9
7805.36
7805.81
7806.25
7806.7
7807.14
7807.57
7808.01
7808.44
7808.86
7809.28
7809.7
7810.12
7810.54
7810.95
7811.35
7811.76
7812.16
7812.56
7812.95
7813.34
7813.73
7814.12
7814.5
7814.88
7815.26
7815.63
7816
7816.37
7816.73
7817.1
7817.45
7817.81
7818.16
7818.51
7818.86
7819.2
7819.54
7819.88
7820.21
7820.54
7820.87
7821.2
7821.52
7821.83
7822.15
7822.46
7822.77
7823.07
7823.37
7823.67
7823.97
7824.26
7824.54
7824.83
7825.11
7825.39
7825.66
7825.93
7826.2
7826.46
7826.72
7826.97
7827.23
7827.47
7827.72
7827.96
7828.2
7828.43
7828.66
7828.89
7829.12
7829.34
7829.55
7829.77
7829.98
7830.18
7830.39
7830.59
7830.78
7830.98
7831.17
7831.35
7831.54
7831.72
7831.89
7832.07
7832.24
7832.41
7832.57
7832.73
7832.89
7833.05
7833.2
7833.35
7833.49
7833.64
7833.78
7833.92
7834.05
7834.19
7834.32
7834.44
7834.57
7834.69
7834.81
7834.93
7835.04
7835.15
7835.26
7835.37
7835.48
7835.58
7835.68
7835.78
7835.88
7835.97
7836.06
7836.16
7836.24
7836.33
7836.41
7836.5
7836.58
7836.66
7836.73
7836.81
7836.88
7836.95
7837.02
7837.09
7837.16
7837.22
7837.29
7837.35
7837.4
7837.46
7837.52
7837.57
7837.63
7837.68
7837.73
7837.79
7837.84
7837.89
7837.93
7837.98
7838.02
7838.07
7838.11
7838.16
7838.2
7838.24
7838.27
7838.31
7838.35
7838.38
7838.42
7838.45
7838.49
7838.52
7838.55
7838.58
7838.61
7838.64
7838.67
7838.7
7838.72
7838.74
7838.76
7838.79
7838.84
7838.87
7838.89
7838.91
7838.93
7838.95
7838.96
7838.98
7838.99
7839.01
7839.02
7839.04
7839.05
7839.07
7839.08
7839.1
7839.12
7839.13
7839.15
7839.16
7839.18
7839.19
7839.21
7839.23
7839.24
7839.26
7839.27
7839.29
7839.3
7839.32
7839.33
7839.35
7839.36
7839.37
7839.39
7839.4
7839.41
7839.43
7839.44
7839.45
7839.47
7839.48
7839.49
7839.5
7839.51
7839.53
7839.54
7839.55
7839.56
7839.57
7839.58
7839.59
7839.6
7839.61
7839.62
7839.63
7839.64
7839.65
7839.66
7839.67
7839.68
7839.69
7839.69
7839.7
7839.71
7839.72
7839.72
7839.73
7839.74
7839.74
7839.75
7839.76
7839.76
7839.77
7839.78
7839.78
7839.79
7839.79
7839.8
7839.8
7839.81
7839.81
8484.98
8478.59
8471.39
8464.7
8458.72
8452.53
8445.76
8438.81
8431.89
8424.88
8417.75
8410.53
8403.21
8395.8
8388.3
8380.73
8373.09
8365.37
8357.58
8349.62
8341.69
8333.73
8325.8
8317.73
8309.51
8301.31
8293.12
8285
8276.77
8268.35
8260.14
8251.94
8243.58
8235.16
8226.86
8218.59
8210.4
8202.13
8193.73
8185.48
8177.26
8169.2
8161.15
8153.01
8144.9
8136.89
8129.01
8121.16
8113.27
8105.51
8097.86
8090.29
8082.7
8075.21
8067.93
8060.66
8053.41
8046.32
8039.37
8032.58
8025.92
8019.28
8012.66
8006.26
8000.04
7993.97
7987.96
7982.01
7976.27
7970.71
7965.24
7959.95
7954.88
7949.94
7945.11
7940.52
7936.13
7931.8
7927.44
7923.19
7919.58
7915.48
7908.72
7904.16
7899.42
7894.81
7890.37
7886.03
7881.86
7877.56
7873.58
7869.63
7865.76
7862.01
7858.39
7854.88
7851.5
7848.2
7844.99
7841.9
7838.93
7836.04
7833.27
7830.61
7828.06
7825.58
7823.21
7820.97
7818.77
7816.68
7814.69
7812.8
7810.99
7809.27
7807.62
7806.03
7804.5
7803.04
7801.67
7800.35
7799.06
7797.83
7796.66
7795.54
7794.47
7793.46
7792.49
7791.53
7790.63
7789.78
7788.96
7788.14
7787.37
7786.64
7785.94
7785.27
7784.58
7783.94
7783.32
7782.75
7782.14
7781.58
7781.04
7780.52
7779.99
7779.5
7779.02
7778.56
7778.07
7777.61
7777.17
7776.73
7776.32
7775.9
7775.45
7775.03
7774.62
7774.22
7773.82
7773.38
7772.97
7772.56
7772.15
7771.72
7771.28
7770.86
7770.43
7769.98
7769.53
7769.08
7768.64
7768.19
7767.72
7767.25
7766.8
7766.35
7765.91
7765.45
7765
7764.57
7764.15
7763.75
7763.35
7762.95
7762.57
7762.22
7761.89
7761.55
7761.24
7760.96
7760.7
7760.45
7760.22
7760.01
7759.83
7759.68
7759.54
7759.42
7759.33
7759.27
7759.21
7759.19
7759.2
7759.23
7759.28
7759.36
7759.46
7759.57
7759.72
7759.89
7760.09
7760.29
7760.53
7760.79
7761.06
7761.37
7761.68
7762.01
7762.36
7762.73
7763.12
7763.54
7763.95
7764.38
7764.84
7765.3
7765.78
7766.27
7766.79
7767.29
7767.82
7768.35
7768.9
7769.46
7770.03
7770.59
7771.17
7771.75
7772.35
7772.93
7773.53
7774.13
7774.74
7775.34
7775.95
7776.56
7777.17
7777.78
7778.39
7779
7779.61
7780.22
7780.83
7781.43
7782.04
7782.64
7783.24
7783.84
7784.43
7785.02
7785.61
7786.2
7786.78
7787.36
7787.93
7788.5
7789.07
7789.64
7790.2
7790.76
7791.31
7791.86
7792.41
7792.95
7793.49
7794.03
7794.56
7795.09
7795.62
7796.14
7796.65
7797.17
7797.68
7798.19
7798.69
7799.19
7799.68
7800.18
7800.67
7801.15
7801.63
7802.11
7802.59
7803.06
7803.52
7803.99
7804.45
7804.9
7805.36
7805.81
7806.25
7806.7
7807.14
7807.57
7808.01
7808.44
7808.86
7809.29
7809.71
7810.12
7810.54
7810.95
7811.35
7811.76
7812.16
7812.56
7812.95
7813.35
7813.73
7814.12
7814.5
7814.88
7815.26
7815.63
7816
7816.37
7816.74
7817.1
7817.46
7817.81
7818.17
7818.52
7818.86
7819.21
7819.55
7819.88
7820.22
7820.55
7820.88
7821.2
7821.52
7821.84
7822.15
7822.46
7822.77
7823.08
7823.38
7823.68
7823.97
7824.26
7824.55
7824.83
7825.11
7825.39
7825.66
7825.93
7826.2
7826.46
7826.72
7826.98
7827.23
7827.48
7827.73
7827.97
7828.2
7828.44
7828.67
7828.9
7829.12
7829.34
7829.56
7829.77
7829.98
7830.19
7830.39
7830.59
7830.79
7830.98
7831.17
7831.36
7831.54
7831.72
7831.9
7832.07
7832.25
7832.41
7832.58
7832.74
7832.9
7833.05
7833.2
7833.35
7833.5
7833.64
7833.78
7833.92
7834.06
7834.19
7834.32
7834.45
7834.57
7834.7
7834.82
7834.93
7835.05
7835.16
7835.27
7835.38
7835.48
7835.59
7835.69
7835.79
7835.88
7835.98
7836.07
7836.16
7836.25
7836.33
7836.42
7836.5
7836.58
7836.66
7836.74
7836.81
7836.89
7836.96
7837.03
7837.1
7837.16
7837.22
7837.29
7837.35
7837.41
7837.46
7837.52
7837.58
7837.63
7837.69
7837.74
7837.79
7837.84
7837.89
7837.94
7837.98
7838.03
7838.07
7838.12
7838.16
7838.2
7838.24
7838.28
7838.31
7838.35
7838.39
7838.42
7838.46
7838.49
7838.52
7838.55
7838.59
7838.61
7838.64
7838.67
7838.7
7838.73
7838.76
7838.78
7838.79
7838.81
7838.84
7838.86
7838.88
7838.9
7838.92
7838.94
7838.96
7838.97
7838.99
7839.01
7839.02
7839.04
7839.06
7839.07
7839.09
7839.11
7839.12
7839.14
7839.15
7839.17
7839.19
7839.2
7839.22
7839.24
7839.25
7839.27
7839.28
7839.3
7839.31
7839.33
7839.34
7839.36
7839.37
7839.39
7839.4
7839.41
7839.43
7839.44
7839.45
7839.47
7839.48
7839.49
7839.5
7839.52
7839.53
7839.54
7839.55
7839.56
7839.57
7839.58
7839.59
7839.6
7839.61
7839.62
7839.63
7839.64
7839.65
7839.66
7839.67
7839.68
7839.69
7839.69
7839.7
7839.71
7839.72
7839.73
7839.73
7839.74
7839.75
7839.75
7839.76
7839.77
7839.77
7839.78
7839.78
7839.79
7839.79
7839.8
7839.8
7839.81
7839.81
8485.55
8479.14
8471.87
8465.15
8459.12
8452.91
8446.13
8439.18
8432.24
8425.23
8418.11
8410.86
8403.52
8396.1
8388.6
8381.02
8373.36
8365.62
8357.81
8349.83
8341.82
8333.97
8325.98
8317.84
8309.51
8301.31
8293.24
8285.11
8276.66
8268.26
8259.96
8251.74
8243.63
8235.31
8226.81
8218.44
8210.15
8202.03
8193.79
8185.47
8177.02
8168.96
8160.96
8152.85
8144.7
8136.55
8128.59
8120.7
8112.98
8105.22
8097.5
8089.75
8082.2
8074.75
8067.47
8060.27
8053.04
8045.76
8038.79
8032.05
8025.38
8018.66
8011.99
8005.6
7999.47
7993.35
7987.31
7981.39
7975.55
7969.96
7964.53
7959.23
7954.03
7948.98
7944.07
7939.26
7934.55
7930.05
7925.63
7921.14
7916.71
7912.24
7908.02
7904.53
7900.52
7893.92
7889.52
7884.94
7881.18
7877
7873.09
7869.17
7865.19
7861.47
7857.88
7854.36
7850.96
7847.65
7844.43
7841.4
7838.42
7835.54
7832.75
7830.14
7827.6
7825.12
7822.73
7820.48
7818.35
7816.28
7814.31
7812.42
7810.6
7808.87
7807.24
7805.67
7804.15
7802.69
7801.31
7800.03
7798.77
7797.55
7796.39
7795.31
7794.25
7793.23
7792.27
7791.34
7790.44
7789.59
7788.79
7788.01
7787.24
7786.52
7785.83
7785.14
7784.47
7783.86
7783.26
7782.66
7782.06
7781.54
7781.01
7780.46
7779.94
7779.48
7779
7778.51
7778.03
7777.61
7777.16
7776.71
7776.31
7775.89
7775.45
7775.02
7774.63
7774.23
7773.8
7773.38
7772.97
7772.58
7772.17
7771.73
7771.28
7770.85
7770.44
7770
7769.54
7769.07
7768.64
7768.19
7767.71
7767.24
7766.8
7766.35
7765.88
7765.44
7765
7764.57
7764.14
7763.71
7763.3
7762.91
7762.55
7762.2
7761.85
7761.52
7761.21
7760.91
7760.63
7760.39
7760.17
7759.97
7759.78
7759.61
7759.46
7759.35
7759.27
7759.2
7759.16
7759.13
7759.12
7759.17
7759.22
7759.29
7759.38
7759.49
7759.66
7759.83
7760.01
7760.21
7760.47
7760.73
7761.01
7761.3
7761.61
7761.95
7762.31
7762.67
7763.07
7763.48
7763.9
7764.33
7764.78
7765.26
7765.74
7766.23
7766.74
7767.26
7767.78
7768.32
7768.88
7769.43
7770
7770.57
7771.14
7771.72
7772.3
7772.9
7773.51
7774.11
7774.72
7775.33
7775.94
7776.55
7777.15
7777.76
7778.38
7779
7779.61
7780.21
7780.82
7781.42
7782.03
7782.64
7783.24
7783.83
7784.42
7785.02
7785.61
7786.2
7786.77
7787.35
7787.93
7788.5
7789.07
7789.64
7790.2
7790.76
7791.31
7791.86
7792.41
7792.95
7793.49
7794.03
7794.56
7795.09
7795.62
7796.14
7796.66
7797.17
7797.68
7798.19
7798.69
7799.19
7799.69
7800.18
7800.67
7801.15
7801.64
7802.11
7802.59
7803.06
7803.53
7803.99
7804.45
7804.91
7805.36
7805.81
7806.26
7806.7
7807.14
7807.58
7808.01
7808.44
7808.87
7809.29
7809.71
7810.13
7810.54
7810.95
7811.36
7811.76
7812.17
7812.56
7812.96
7813.35
7813.74
7814.13
7814.51
7814.89
7815.27
7815.64
7816.01
7816.38
7816.74
7817.11
7817.47
7817.82
7818.17
7818.52
7818.87
7819.21
7819.56
7819.89
7820.23
7820.56
7820.89
7821.21
7821.53
7821.85
7822.16
7822.48
7822.78
7823.09
7823.39
7823.69
7823.98
7824.27
7824.56
7824.85
7825.13
7825.4
7825.68
7825.95
7826.21
7826.48
7826.74
7826.99
7827.25
7827.49
7827.74
7827.98
7828.22
7828.45
7828.68
7828.91
7829.14
7829.36
7829.57
7829.79
7830
7830.2
7830.41
7830.61
7830.8
7831
7831.19
7831.37
7831.56
7831.74
7831.91
7832.09
7832.26
7832.43
7832.59
7832.75
7832.91
7833.06
7833.22
7833.37
7833.51
7833.66
7833.8
7833.94
7834.07
7834.2
7834.33
7834.46
7834.58
7834.71
7834.83
7834.94
7835.06
7835.17
7835.28
7835.39
7835.49
7835.6
7835.7
7835.8
7835.89
7835.99
7836.08
7836.17
7836.26
7836.34
7836.43
7836.51
7836.59
7836.67
7836.75
7836.82
7836.9
7836.96
7837.03
7837.1
7837.16
7837.23
7837.29
7837.35
7837.41
7837.47
7837.53
7837.58
7837.64
7837.69
7837.74
7837.79
7837.84
7837.89
7837.94
7837.99
7838.03
7838.08
7838.12
7838.16
7838.2
7838.24
7838.28
7838.32
7838.36
7838.39
7838.43
7838.46
7838.5
7838.53
7838.56
7838.59
7838.62
7838.64
7838.68
7838.71
7838.72
7838.75
7838.76
7838.78
7838.8
7838.81
7838.83
7838.84
7838.86
7838.88
7838.9
7838.92
7838.94
7838.96
7838.98
7839
7839.02
7839.04
7839.06
7839.08
7839.1
7839.12
7839.14
7839.15
7839.17
7839.19
7839.2
7839.22
7839.24
7839.25
7839.27
7839.28
7839.3
7839.31
7839.33
7839.34
7839.36
7839.37
7839.39
7839.4
7839.41
7839.43
7839.44
7839.45
7839.47
7839.48
7839.49
7839.5
7839.51
7839.53
7839.54
7839.55
7839.56
7839.57
7839.58
7839.59
7839.6
7839.61
7839.62
7839.63
7839.64
7839.65
7839.66
7839.67
7839.68
7839.69
7839.69
7839.7
7839.71
7839.72
7839.72
7839.73
7839.74
7839.75
7839.75
7839.76
7839.76
7839.77
7839.78
7839.78
7839.79
7839.79
7839.8
7839.8
7839.81
7839.81
8486.4
8479.96
8472.68
8465.94
8459.92
8453.69
8446.88
8439.89
8432.92
8425.87
8418.7
8411.41
8404.04
8396.58
8389.04
8381.42
8373.73
8365.96
8358.11
8350.16
8342.2
8334.25
8326.19
8318.03
8309.78
8301.62
8293.48
8285.23
8276.89
8268.38
8259.96
8251.8
8243.62
8235.3
8226.93
8218.52
8210.2
8201.92
8193.63
8185.34
8177.04
8168.82
8160.65
8152.5
8144.37
8136.3
8128.32
8120.39
8112.49
8104.67
8096.99
8089.4
8081.8
8074.26
8066.92
8059.6
8052.28
8044.94
8038.12
8031.39
8024.42
8017.62
8011.05
8004.72
7998.54
7992.14
7986.05
7980.24
7974.54
7968.73
7963.14
7957.73
7952.56
7947.53
7942.46
7937.48
7932.71
7928.06
7923.58
7918.9
7914.38
7910.04
7905.74
7901.37
7896.9
7892.54
7888.69
7885.47
7881.93
7876.14
7872.12
7868.23
7864.39
7860.77
7857.15
7853.47
7850.05
7846.81
7843.66
7840.59
7837.6
7834.69
7832.01
7829.38
7826.83
7824.36
7821.99
7819.85
7817.7
7815.62
7813.63
7811.83
7810.05
7808.31
7806.65
7805.12
7803.66
7802.23
7800.86
7799.54
7798.34
7797.15
7796
7794.94
7793.91
7792.9
7791.95
7791.05
7790.19
7789.35
7788.53
7787.76
7787.03
7786.33
7785.64
7784.96
7784.31
7783.72
7783.13
7782.55
7781.95
7781.44
7780.91
7780.37
7779.89
7779.42
7778.94
7778.45
7777.98
7777.57
7777.15
7776.71
7776.28
7775.84
7775.44
7775.04
7774.64
7774.24
7773.82
7773.4
7772.97
7772.57
7772.18
7771.73
7771.28
7770.88
7770.45
7770.01
7769.52
7769.06
7768.64
7768.2
7767.7
7767.22
7766.79
7766.33
7765.86
7765.4
7764.97
7764.53
7764.07
7763.67
7763.27
7762.86
7762.48
7762.12
7761.79
7761.43
7761.1
7760.83
7760.56
7760.31
7760.06
7759.86
7759.7
7759.53
7759.36
7759.23
7759.16
7759.1
7759.03
7759
7759.01
7759.05
7759.11
7759.17
7759.25
7759.38
7759.53
7759.72
7759.89
7760.1
7760.35
7760.61
7760.88
7761.19
7761.51
7761.84
7762.19
7762.58
7762.97
7763.37
7763.8
7764.25
7764.7
7765.16
7765.63
7766.15
7766.66
7767.18
7767.71
7768.25
7768.8
7769.36
7769.93
7770.5
7771.08
7771.66
7772.26
7772.87
7773.47
7774.08
7774.67
7775.28
7775.9
7776.51
7777.12
7777.74
7778.36
7778.97
7779.57
7780.19
7780.8
7781.41
7782.01
7782.62
7783.22
7783.81
7784.41
7785.01
7785.6
7786.19
7786.77
7787.35
7787.92
7788.49
7789.06
7789.63
7790.2
7790.75
7791.3
7791.85
7792.41
7792.95
7793.49
7794.02
7794.56
7795.09
7795.61
7796.14
7796.65
7797.17
7797.68
7798.19
7798.69
7799.19
7799.69
7800.18
7800.67
7801.15
7801.64
7802.11
7802.59
7803.06
7803.53
7803.99
7804.45
7804.91
7805.36
7805.81
7806.26
7806.7
7807.14
7807.58
7808.01
7808.44
7808.87
7809.3
7809.72
7810.13
7810.55
7810.96
7811.37
7811.77
7812.17
7812.57
7812.97
7813.36
7813.75
7814.13
7814.52
7814.9
7815.28
7815.65
7816.02
7816.39
7816.75
7817.12
7817.48
7817.83
7818.19
7818.54
7818.88
7819.23
7819.57
7819.91
7820.24
7820.57
7820.9
7821.23
7821.55
7821.87
7822.18
7822.49
7822.8
7823.11
7823.41
7823.71
7824
7824.29
7824.58
7824.87
7825.15
7825.42
7825.7
7825.97
7826.23
7826.5
7826.76
7827.01
7827.27
7827.51
7827.76
7828
7828.24
7828.47
7828.71
7828.93
7829.16
7829.38
7829.6
7829.81
7830.02
7830.23
7830.43
7830.63
7830.83
7831.02
7831.21
7831.39
7831.58
7831.76
7831.93
7832.11
7832.28
7832.45
7832.61
7832.77
7832.93
7833.08
7833.24
7833.38
7833.53
7833.67
7833.82
7833.95
7834.09
7834.22
7834.35
7834.48
7834.6
7834.72
7834.84
7834.96
7835.07
7835.19
7835.3
7835.4
7835.51
7835.61
7835.71
7835.81
7835.91
7836
7836.09
7836.18
7836.27
7836.36
7836.44
7836.52
7836.61
7836.68
7836.76
7836.83
7836.9
7836.97
7837.04
7837.11
7837.17
7837.24
7837.3
7837.36
7837.42
7837.48
7837.54
7837.59
7837.65
7837.7
7837.75
7837.8
7837.85
7837.9
7837.95
7837.99
7838.04
7838.08
7838.13
7838.17
7838.21
7838.25
7838.29
7838.33
7838.37
7838.4
7838.43
7838.47
7838.5
7838.53
7838.56
7838.61
7838.63
7838.65
7838.67
7838.7
7838.73
7838.75
7838.78
7838.8
7838.82
7838.84
7838.85
7838.87
7838.89
7838.91
7838.93
7838.94
7838.96
7838.98
7839
7839.02
7839.03
7839.05
7839.07
7839.09
7839.1
7839.12
7839.14
7839.16
7839.17
7839.19
7839.21
7839.22
7839.24
7839.26
7839.27
7839.29
7839.3
7839.32
7839.33
7839.35
7839.36
7839.38
7839.39
7839.4
7839.42
7839.43
7839.44
7839.46
7839.47
7839.48
7839.49
7839.51
7839.52
7839.53
7839.54
7839.55
7839.56
7839.58
7839.59
7839.6
7839.61
7839.62
7839.63
7839.64
7839.65
7839.65
7839.66
7839.67
7839.68
7839.69
7839.7
7839.7
7839.71
7839.72
7839.73
7839.73
7839.74
7839.75
7839.76
7839.76
7839.77
7839.77
7839.78
7839.79
7839.79
7839.8
7839.8
7839.81
7839.81
7839.82
8487.58
8481.1
8473.77
8467.01
8460.95
8454.7
8447.87
8440.85
8433.83
8426.74
8419.54
8412.22
8404.81
8397.32
8389.74
8382.08
8374.34
8366.53
8358.66
8350.72
8342.73
8334.67
8326.56
8318.41
8310.21
8301.99
8293.72
8285.41
8277.07
8268.71
8260.31
8251.91
8243.53
8235.15
8226.76
8218.37
8210.01
8201.67
8193.34
8185.02
8176.71
8168.44
8160.2
8152
8143.84
8135.75
8127.72
8119.74
8111.82
8103.93
8096.22
8088.56
8080.96
8073.44
8066.02
8058.68
8051.37
8044.13
8037.15
8030.32
8023.42
8016.5
8009.77
8003.53
7997.33
7990.95
7984.69
7978.89
7973.16
7967.38
7961.64
7956.09
7950.79
7945.74
7940.72
7935.74
7930.86
7926.06
7921.19
7916.58
7912.06
7907.7
7903.46
7899.16
7894.74
7890.5
7886.55
7882.67
7878.68
7874.85
7871.77
7868.32
7862.8
7859.37
7855.93
7852.36
7848.98
7845.69
7842.42
7839.44
7836.51
7833.61
7830.9
7828.33
7825.7
7823.29
7821.07
7818.9
7816.74
7814.65
7812.73
7810.95
7809.23
7807.52
7805.86
7804.33
7802.89
7801.55
7800.22
7798.9
7797.68
7796.53
7795.48
7794.43
7793.38
7792.42
7791.51
7790.6
7789.76
7788.95
7788.2
7787.46
7786.73
7786
7785.34
7784.74
7784.14
7783.51
7782.9
7782.34
7781.8
7781.31
7780.81
7780.28
7779.76
7779.29
7778.83
7778.42
7777.97
7777.52
7777.07
7776.64
7776.25
7775.81
7775.39
7775.01
7774.64
7774.24
7773.8
7773.39
7773.01
7772.56
7772.14
7771.71
7771.31
7770.88
7770.42
7769.97
7769.53
7769.08
7768.61
7768.14
7767.71
7767.2
7766.73
7766.27
7765.83
7765.38
7764.9
7764.45
7764.02
7763.6
7763.17
7762.77
7762.41
7762.05
7761.68
7761.32
7761.01
7760.72
7760.43
7760.17
7759.93
7759.74
7759.58
7759.4
7759.22
7759.1
7759
7758.94
7758.91
7758.86
7758.85
7758.87
7758.92
7759
7759.1
7759.26
7759.39
7759.54
7759.73
7759.95
7760.18
7760.44
7760.72
7761.05
7761.35
7761.69
7762.05
7762.43
7762.85
7763.24
7763.66
7764.11
7764.57
7765.07
7765.53
7766.03
7766.54
7767.07
7767.6
7768.15
7768.7
7769.27
7769.87
7770.42
7771.01
7771.6
7772.19
7772.8
7773.43
7774.01
7774.62
7775.24
7775.85
7776.46
7777.08
7777.71
7778.33
7778.93
7779.54
7780.16
7780.77
7781.39
7781.99
7782.59
7783.19
7783.79
7784.4
7784.99
7785.58
7786.17
7786.75
7787.33
7787.91
7788.49
7789.05
7789.62
7790.18
7790.74
7791.29
7791.85
7792.4
7792.95
7793.48
7794.02
7794.55
7795.08
7795.6
7796.13
7796.65
7797.16
7797.67
7798.18
7798.69
7799.19
7799.68
7800.18
7800.66
7801.15
7801.63
7802.11
7802.59
7803.06
7803.53
7803.99
7804.45
7804.91
7805.36
7805.81
7806.26
7806.71
7807.15
7807.58
7808.02
7808.45
7808.87
7809.3
7809.72
7810.14
7810.55
7810.96
7811.37
7811.78
7812.18
7812.58
7812.97
7813.37
7813.76
7814.14
7814.53
7814.91
7815.28
7815.66
7816.03
7816.4
7816.77
7817.13
7817.49
7817.84
7818.2
7818.55
7818.9
7819.24
7819.58
7819.92
7820.26
7820.59
7820.92
7821.24
7821.56
7821.88
7822.2
7822.51
7822.82
7823.13
7823.43
7823.73
7824.02
7824.31
7824.6
7824.89
7825.17
7825.45
7825.72
7825.99
7826.26
7826.52
7826.78
7827.04
7827.29
7827.54
7827.79
7828.03
7828.27
7828.5
7828.73
7828.96
7829.18
7829.41
7829.62
7829.84
7830.05
7830.25
7830.46
7830.66
7830.85
7831.05
7831.23
7831.42
7831.6
7831.78
7831.96
7832.13
7832.3
7832.47
7832.63
7832.8
7832.95
7833.11
7833.26
7833.41
7833.55
7833.7
7833.84
7833.98
7834.11
7834.24
7834.37
7834.5
7834.62
7834.75
7834.86
7834.98
7835.1
7835.21
7835.32
7835.42
7835.53
7835.63
7835.73
7835.83
7835.93
7836.02
7836.11
7836.2
7836.29
7836.38
7836.46
7836.54
7836.62
7836.69
7836.77
7836.84
7836.91
7836.98
7837.05
7837.12
7837.18
7837.25
7837.31
7837.37
7837.43
7837.49
7837.55
7837.6
7837.66
7837.71
7837.76
7837.81
7837.86
7837.91
7837.96
7838.01
7838.05
7838.09
7838.14
7838.18
7838.22
7838.26
7838.3
7838.33
7838.37
7838.41
7838.44
7838.47
7838.52
7838.55
7838.56
7838.59
7838.61
7838.63
7838.65
7838.68
7838.7
7838.72
7838.74
7838.77
7838.79
7838.81
7838.83
7838.85
7838.87
7838.89
7838.91
7838.93
7838.95
7838.97
7838.99
7839.01
7839.03
7839.05
7839.07
7839.08
7839.1
7839.12
7839.14
7839.16
7839.17
7839.19
7839.21
7839.22
7839.24
7839.26
7839.27
7839.29
7839.3
7839.32
7839.33
7839.35
7839.36
7839.38
7839.39
7839.4
7839.42
7839.43
7839.44
7839.46
7839.47
7839.48
7839.5
7839.51
7839.52
7839.53
7839.54
7839.55
7839.57
7839.58
7839.59
7839.6
7839.61
7839.62
7839.63
7839.64
7839.65
7839.66
7839.66
7839.67
7839.68
7839.69
7839.7
7839.71
7839.71
7839.72
7839.73
7839.74
7839.74
7839.75
7839.76
7839.76
7839.77
7839.77
7839.78
7839.79
7839.79
7839.8
7839.8
7839.81
7839.81
7839.82
8489.11
8482.58
8475.19
8468.35
8462.23
8455.93
8449.05
8441.97
8434.9
8427.77
8420.53
8413.17
8405.72
8398.18
8390.57
8382.87
8375.1
8367.27
8359.36
8351.38
8343.35
8335.24
8327.08
8318.88
8310.63
8302.35
8294.02
8285.64
8277.24
8268.81
8260.36
8251.89
8243.42
8234.94
8226.46
8218
8209.56
8201.15
8192.75
8184.36
8176
8167.68
8159.38
8151.11
8142.9
8134.77
8126.67
8118.57
8110.56
8102.73
8095.03
8087.34
8079.68
8072.14
8064.71
8057.34
8050.06
8042.85
8035.82
8028.89
8021.99
8015.15
8008.49
8002.12
7995.75
7989.48
7983.31
7977.32
7971.45
7965.68
7960.03
7954.45
7948.99
7943.81
7938.69
7933.66
7928.72
7923.83
7918.97
7914.37
7909.93
7905.46
7901.01
7896.57
7892.28
7888.28
7884.27
7880.34
7876.46
7872.64
7868.94
7865.16
7861.58
7858.92
7855.66
7850.69
7847.41
7844.35
7841.11
7838.13
7835.22
7832.38
7829.66
7827.05
7824.5
7822.16
7819.91
7817.72
7815.59
7813.54
7811.74
7809.94
7808.2
7806.49
7804.9
7803.47
7802.05
7800.65
7799.35
7798.14
7796.97
7795.82
7794.76
7793.73
7792.79
7791.83
7790.93
7790.08
7789.3
7788.5
7787.74
7787.04
7786.39
7785.7
7785.04
7784.45
7783.88
7783.28
7782.71
7782.17
7781.67
7781.18
7780.66
7780.15
7779.68
7779.23
7778.79
7778.36
7777.9
7777.47
7777.06
7776.65
7776.23
7775.82
7775.42
7775.03
7774.65
7774.21
7773.8
7773.42
7773.02
7772.59
7772.17
7771.76
7771.34
7770.89
7770.42
7770
7769.56
7769.1
7768.62
7768.16
7767.7
7767.21
7766.73
7766.28
7765.82
7765.34
7764.87
7764.42
7763.99
7763.55
7763.12
7762.73
7762.34
7761.95
7761.58
7761.25
7760.92
7760.62
7760.33
7760.08
7759.83
7759.59
7759.41
7759.26
7759.1
7758.96
7758.86
7758.79
7758.73
7758.7
7758.69
7758.72
7758.77
7758.84
7758.94
7759.07
7759.21
7759.37
7759.56
7759.79
7760.03
7760.29
7760.57
7760.86
7761.18
7761.55
7761.92
7762.3
7762.67
7763.08
7763.53
7764
7764.46
7764.93
7765.42
7765.92
7766.42
7766.95
7767.5
7768.08
7768.63
7769.19
7769.78
7770.36
7770.93
7771.52
7772.14
7772.74
7773.34
7773.95
7774.57
7775.2
7775.81
7776.43
7777.06
7777.68
7778.29
7778.89
7779.52
7780.13
7780.74
7781.36
7781.98
7782.58
7783.18
7783.78
7784.39
7784.98
7785.57
7786.16
7786.74
7787.33
7787.91
7788.47
7789.04
7789.62
7790.18
7790.73
7791.29
7791.85
7792.4
7792.95
7793.48
7794.02
7794.55
7795.08
7795.61
7796.14
7796.65
7797.17
7797.68
7798.19
7798.69
7799.19
7799.69
7800.18
7800.67
7801.16
7801.64
7802.12
7802.59
7803.07
7803.53
7804
7804.46
7804.92
7805.37
7805.82
7806.27
7806.72
7807.16
7807.59
7808.03
7808.46
7808.89
7809.31
7809.73
7810.15
7810.56
7810.98
7811.38
7811.79
7812.19
7812.59
7812.99
7813.38
7813.77
7814.16
7814.54
7814.92
7815.3
7815.68
7816.05
7816.42
7816.78
7817.15
7817.51
7817.87
7818.22
7818.57
7818.92
7819.26
7819.61
7819.94
7820.28
7820.61
7820.94
7821.27
7821.59
7821.91
7822.23
7822.54
7822.85
7823.16
7823.46
7823.76
7824.05
7824.35
7824.63
7824.92
7825.2
7825.48
7825.75
7826.03
7826.29
7826.56
7826.82
7827.07
7827.33
7827.58
7827.82
7828.06
7828.3
7828.54
7828.77
7829
7829.22
7829.44
7829.66
7829.87
7830.08
7830.29
7830.49
7830.69
7830.89
7831.08
7831.27
7831.46
7831.64
7831.82
7831.99
7832.17
7832.34
7832.5
7832.67
7832.83
7832.99
7833.14
7833.29
7833.44
7833.59
7833.73
7833.87
7834.01
7834.14
7834.27
7834.4
7834.53
7834.65
7834.77
7834.89
7835.01
7835.12
7835.23
7835.34
7835.45
7835.55
7835.66
7835.76
7835.85
7835.95
7836.04
7836.14
7836.23
7836.31
7836.39
7836.47
7836.55
7836.63
7836.71
7836.78
7836.86
7836.93
7837
7837.07
7837.13
7837.2
7837.26
7837.33
7837.39
7837.45
7837.5
7837.56
7837.62
7837.67
7837.72
7837.78
7837.83
7837.88
7837.92
7837.97
7838.02
7838.06
7838.11
7838.15
7838.19
7838.23
7838.27
7838.31
7838.35
7838.4
7838.43
7838.45
7838.48
7838.5
7838.53
7838.56
7838.59
7838.62
7838.64
7838.67
7838.69
7838.72
7838.74
7838.76
7838.78
7838.8
7838.82
7838.84
7838.86
7838.88
7838.9
7838.92
7838.94
7838.96
7838.98
7839
7839.02
7839.03
7839.05
7839.07
7839.09
7839.11
7839.12
7839.14
7839.16
7839.18
7839.19
7839.21
7839.23
7839.24
7839.26
7839.27
7839.29
7839.31
7839.32
7839.34
7839.35
7839.37
7839.38
7839.39
7839.41
7839.42
7839.43
7839.45
7839.46
7839.47
7839.49
7839.5
7839.51
7839.52
7839.53
7839.55
7839.56
7839.57
7839.58
7839.59
7839.6
7839.61
7839.62
7839.63
7839.64
7839.65
7839.66
7839.67
7839.68
7839.68
7839.69
7839.7
7839.71
7839.72
7839.72
7839.73
7839.74
7839.75
7839.75
7839.76
7839.77
7839.77
7839.78
7839.78
7839.79
7839.79
7839.8
7839.81
7839.81
7839.81
7839.82
8490.98
8484.39
8477.01
8469.98
8463.76
8457.41
8450.49
8443.35
8436.22
8429.04
8421.74
8414.34
8406.83
8399.23
8391.56
8383.8
8375.97
8368.07
8360.09
8352.04
8343.93
8335.76
8327.53
8319.25
8310.93
8302.56
8294.14
8285.68
8277.22
8268.74
8260.24
8251.71
8243.18
8234.62
8226.01
8217.4
8208.93
8200.44
8191.88
8182.84
8174.62
8166.68
8158.28
8149.37
8141.32
8133.59
8125.42
8116.89
8108.78
8101.13
8093.56
8085.73
8077.99
8070.49
8063.08
8055.6
8048.29
8041.24
8034.18
8027.18
8020.25
8013.44
8006.73
8000.05
7993.66
7987.46
7981.28
7975.21
7969.2
7963.47
7957.82
7952.21
7946.65
7941.29
7936.24
7931.2
7926.22
7921.29
7916.43
7911.9
7907.33
7902.82
7898.28
7893.94
7889.89
7885.77
7881.72
7877.64
7873.71
7870.07
7866.49
7862.89
7859.35
7855.9
7852.39
7849.17
7846.69
7843.73
7839.16
7836.14
7833.59
7830.74
7828.13
7825.58
7823.04
7820.66
7818.37
7816.26
7814.22
7812.26
7810.36
7808.64
7806.95
7805.29
7803.77
7802.38
7801.01
7799.64
7798.34
7797.24
7796.11
7795.03
7793.96
7792.96
7792.05
7791.17
7790.31
7789.5
7788.71
7787.97
7787.24
7786.56
7785.94
7785.3
7784.7
7784.13
7783.59
7783.04
7782.5
7781.99
7781.46
7781.01
7780.53
7780.08
7779.62
7779.17
7778.72
7778.28
7777.81
7777.47
7777.06
7776.66
7776.2
7775.86
7775.47
7775.07
7774.66
7774.21
7773.86
7773.46
7773.06
7772.65
7772.23
7771.81
7771.38
7770.94
7770.47
7770.05
7769.59
7769.12
7768.66
7768.19
7767.71
7767.23
7766.74
7766.28
7765.8
7765.33
7764.85
7764.37
7763.94
7763.5
7763.06
7762.66
7762.26
7761.87
7761.48
7761.14
7760.82
7760.51
7760.22
7759.95
7759.69
7759.46
7759.22
7759.09
7758.94
7758.8
7758.7
7758.61
7758.53
7758.52
7758.52
7758.53
7758.55
7758.66
7758.75
7758.87
7759
7759.19
7759.38
7759.57
7759.85
7760.11
7760.4
7760.7
7761.01
7761.33
7761.74
7762.13
7762.53
7762.94
7763.35
7763.85
7764.32
7764.8
7765.3
7765.78
7766.33
7766.86
7767.37
7767.96
7768.53
7769.1
7769.68
7770.27
7770.86
7771.44
7772.08
7772.69
7773.29
7773.88
7774.53
7775.15
7775.77
7776.37
7777.02
7777.64
7778.26
7778.87
7779.5
7780.12
7780.73
7781.35
7781.96
7782.57
7783.18
7783.76
7784.38
7784.97
7785.57
7786.15
7786.73
7787.32
7787.9
7788.48
7789.05
7789.62
7790.18
7790.74
7791.29
7791.85
7792.4
7792.95
7793.49
7794.03
7794.56
7795.08
7795.62
7796.14
7796.66
7797.18
7797.69
7798.2
7798.7
7799.2
7799.7
7800.19
7800.68
7801.16
7801.65
7802.13
7802.61
7803.08
7803.55
7804.01
7804.47
7804.93
7805.39
7805.84
7806.29
7806.73
7807.17
7807.61
7808.04
7808.47
7808.9
7809.33
7809.75
7810.17
7810.58
7810.99
7811.4
7811.81
7812.21
7812.61
7813.01
7813.4
7813.79
7814.18
7814.56
7814.94
7815.32
7815.7
7816.07
7816.44
7816.81
7817.17
7817.53
7817.89
7818.25
7818.6
7818.95
7819.29
7819.64
7819.97
7820.31
7820.64
7820.97
7821.3
7821.62
7821.95
7822.26
7822.58
7822.89
7823.19
7823.5
7823.8
7824.09
7824.39
7824.67
7824.96
7825.24
7825.52
7825.8
7826.07
7826.33
7826.6
7826.86
7827.12
7827.37
7827.62
7827.86
7828.11
7828.35
7828.58
7828.81
7829.04
7829.26
7829.48
7829.7
7829.91
7830.12
7830.33
7830.53
7830.73
7830.93
7831.12
7831.31
7831.5
7831.68
7831.86
7832.04
7832.21
7832.38
7832.54
7832.71
7832.87
7833.02
7833.18
7833.33
7833.48
7833.62
7833.77
7833.91
7834.04
7834.18