/*--------------------------------*- C++ -*----------------------------------*\
| =========                 |                                                 |
| \\      /  F ield         | OpenFOAM: The Open Source CFD Toolbox           |
|  \\    /   O peration     | Version:  v2006                                 |
|   \\  /    A nd           | Website:  www.openfoam.com                      |
|    \\/     M anipulation  |                                                 |
\*---------------------------------------------------------------------------*/
FoamFile
{
    version     2.0;
    format      ascii;
    class       surfaceScalarField;
    location    "2.5";
    object      phi;
}
// * * * * * * * * * * * * * * * * * * * * * * * * * * * * * * * * * * * * * //

dimensions      [0 3 -1 0 0 0 0];
oriented        oriented;


internalField   nonuniform List<scalar> 
65390
(
8.31366e-05
7.73494e-07
8.24719e-05
6.64335e-07
8.18603e-05
6.14128e-07
8.12587e-05
5.98801e-07
8.06562e-05
6.01146e-07
7.99983e-05
6.54641e-07
7.93012e-05
6.96301e-07
7.85603e-05
7.39286e-07
7.77585e-05
7.96698e-07
7.69404e-05
8.12471e-07
7.6115e-05
8.22973e-07
7.5244e-05
8.68172e-07
7.43215e-05
9.16067e-07
7.33314e-05
9.83395e-07
7.23257e-05
1.00174e-06
7.13547e-05
9.68744e-07
7.04017e-05
9.49846e-07
6.94687e-05
9.28598e-07
6.84676e-05
9.97462e-07
6.72165e-05
1.24929e-06
6.58876e-05
1.32801e-06
6.47166e-05
1.17022e-06
6.37528e-05
9.63346e-07
6.27446e-05
1.00861e-06
6.14814e-05
1.26481e-06
6.00814e-05
1.40222e-06
5.87866e-05
1.29721e-06
5.77564e-05
1.03294e-06
5.65754e-05
1.18415e-06
5.51109e-05
1.4685e-06
5.37993e-05
1.31626e-06
5.27022e-05
1.10223e-06
5.15672e-05
1.13994e-06
5.02978e-05
1.27347e-06
4.87444e-05
1.55655e-06
4.74229e-05
1.32442e-06
4.63919e-05
1.0342e-06
4.52925e-05
1.10327e-06
4.40139e-05
1.28267e-06
4.2579e-05
1.4388e-06
4.10821e-05
1.50017e-06
3.99116e-05
1.17317e-06
3.90019e-05
9.11985e-07
3.78789e-05
1.12515e-06
3.65526e-05
1.32814e-06
3.53045e-05
1.2495e-06
3.42439e-05
1.06163e-06
3.31834e-05
1.06092e-06
3.19832e-05
1.20013e-06
3.08109e-05
1.17184e-06
2.97998e-05
1.01047e-06
2.88662e-05
9.33145e-07
2.78115e-05
1.05459e-06
2.67338e-05
1.07833e-06
2.57607e-05
9.74625e-07
2.4853e-05
9.0974e-07
2.37952e-05
1.06028e-06
2.26533e-05
1.14429e-06
2.15116e-05
1.1433e-06
2.0532e-05
9.80287e-07
1.97035e-05
8.28117e-07
1.8807e-05
8.95133e-07
1.77135e-05
1.09173e-06
1.66668e-05
1.04486e-06
1.57885e-05
8.76667e-07
1.50752e-05
7.11949e-07
1.43462e-05
7.27984e-07
1.34917e-05
8.53333e-07
1.26927e-05
7.97512e-07
1.19438e-05
7.46672e-07
1.11329e-05
8.07977e-07
1.03324e-05
7.96888e-07
9.66121e-06
6.67314e-07
9.07709e-06
5.80207e-07
8.29624e-06
7.77073e-07
7.49004e-06
8.02683e-07
6.4909e-06
9.96289e-07
4.73186e-06
1.75752e-06
3.34216e-06
1.38924e-06
2.87572e-06
4.65799e-07
2.45745e-06
4.1803e-07
2.38627e-06
7.1212e-08
2.07707e-06
3.08891e-07
1.93614e-06
1.40902e-07
1.82307e-06
1.12966e-07
1.61437e-06
2.08363e-07
1.43437e-06
1.79745e-07
1.2162e-06
2.1838e-07
1.03956e-06
1.76755e-07
8.51382e-07
1.88183e-07
7.38222e-07
1.13795e-07
6.53468e-07
8.53959e-08
5.67221e-07
8.65419e-08
4.69713e-07
9.80304e-08
4.12355e-07
5.81787e-08
4.00343e-07
1.26921e-08
4.81717e-07
-8.07388e-08
6.03196e-07
-1.21033e-07
7.68531e-07
-1.65026e-07
8.75357e-07
-1.06579e-07
8.66116e-07
9.45033e-09
8.00653e-07
6.55865e-08
6.97596e-07
1.03097e-07
6.37425e-07
6.00108e-08
5.55496e-07
8.16335e-08
4.72851e-07
8.23854e-08
4.28061e-07
4.46369e-08
4.09638e-07
1.82241e-08
3.7803e-07
3.12902e-08
3.37442e-07
4.02318e-08
3.10855e-07
2.62868e-08
2.87441e-07
2.31177e-08
2.91716e-07
-4.60527e-09
3.22066e-07
-3.06635e-08
4.02675e-07
-8.086e-08
5.18628e-07
-1.1619e-07
6.84454e-07
-1.66085e-07
8.05051e-07
-1.2087e-07
8.53806e-07
-4.90123e-08
8.79863e-07
-2.62911e-08
8.60858e-07
1.87749e-08
8.54179e-07
6.45164e-09
8.14873e-07
3.91071e-08
7.83739e-07
3.09734e-08
7.7669e-07
6.90104e-09
7.75476e-07
1.06789e-09
7.81816e-07
-6.47923e-09
7.74997e-07
6.68957e-09
7.58812e-07
1.60653e-08
7.56756e-07
1.95025e-09
7.69242e-07
-1.25794e-08
7.66344e-07
2.80596e-09
7.58343e-07
7.91364e-09
7.51909e-07
6.353e-09
7.56436e-07
-4.61637e-09
7.6229e-07
-5.9559e-09
7.51051e-07
1.11431e-08
7.39793e-07
1.11821e-08
7.32619e-07
7.09748e-09
7.32412e-07
1.16447e-10
7.14661e-07
1.76662e-08
6.96548e-07
1.80445e-08
6.80891e-07
1.55814e-08
6.62914e-07
1.78821e-08
6.37254e-07
2.55714e-08
6.1202e-07
2.51789e-08
5.91937e-07
2.00587e-08
5.71637e-07
2.02907e-08
5.3716e-07
3.44915e-08
5.02604e-07
3.46107e-08
4.65453e-07
3.72348e-08
4.25219e-07
4.03242e-08
3.97021e-07
2.82902e-08
3.69111e-07
2.80216e-08
3.2493e-07
4.43121e-08
2.75194e-07
4.98828e-08
2.29455e-07
4.59038e-08
1.91171e-07
3.84754e-08
1.49596e-07
4.17942e-08
9.56262e-08
5.42126e-08
3.91359e-08
5.67504e-08
-1.07475e-08
5.0156e-08
-5.82062e-08
4.77352e-08
-1.16383e-07
5.84492e-08
-1.81092e-07
6.49703e-08
-2.41643e-07
6.07973e-08
-2.98164e-07
5.67421e-08
-3.61007e-07
6.303e-08
-4.30925e-07
7.00657e-08
-5.02997e-07
7.21761e-08
-5.69761e-07
6.6816e-08
-6.33375e-07
6.36076e-08
-7.05737e-07
7.22938e-08
-7.83178e-07
7.73108e-08
-8.58454e-07
7.50787e-08
-9.31457e-07
7.27387e-08
-1.00421e-06
7.24219e-08
-1.08115e-06
7.65568e-08
-1.1591e-06
7.75217e-08
-1.23759e-06
7.80185e-08
-1.31665e-06
7.85569e-08
-1.39331e-06
7.61285e-08
-1.4709e-06
7.70423e-08
-1.55122e-06
7.9772e-08
-1.63102e-06
7.92375e-08
-1.70822e-06
7.66459e-08
-1.78286e-06
7.40966e-08
-1.86152e-06
7.81294e-08
-1.94094e-06
7.89008e-08
-2.01862e-06
7.7177e-08
-2.09272e-06
7.36265e-08
-2.16871e-06
7.55352e-08
-2.24466e-06
7.55251e-08
-2.31896e-06
7.38983e-08
-2.39191e-06
7.2587e-08
-2.46319e-06
7.09358e-08
-2.53458e-06
7.10788e-08
-2.60525e-06
7.03816e-08
-2.67322e-06
6.77136e-08
-2.73808e-06
6.46191e-08
-2.80389e-06
6.55941e-08
-2.8688e-06
6.47185e-08
-2.93262e-06
6.36401e-08
-2.99374e-06
6.0959e-08
-3.05313e-06
5.92508e-08
-3.10872e-06
5.54749e-08
-3.16354e-06
5.47255e-08
-3.21969e-06
5.6071e-08
-3.27252e-06
5.27776e-08
-3.32232e-06
4.97772e-08
-3.36908e-06
4.67459e-08
-3.41697e-06
4.7899e-08
-3.46163e-06
4.46826e-08
-3.50412e-06
4.25205e-08
-3.54412e-06
4.0026e-08
-3.58081e-06
3.67241e-08
-3.61794e-06
3.71667e-08
-3.65253e-06
3.46255e-08
-3.68496e-06
3.24604e-08
-3.71614e-06
3.12117e-08
-3.74339e-06
2.72954e-08
-3.76691e-06
2.35569e-08
-3.79077e-06
2.3893e-08
-3.81291e-06
2.21746e-08
-3.83315e-06
2.02543e-08
-3.85068e-06
1.75227e-08
-3.86628e-06
1.55872e-08
-3.87956e-06
1.32536e-08
-3.88939e-06
9.82455e-09
-3.89895e-06
9.55049e-09
-3.90665e-06
7.70339e-09
-3.91258e-06
5.93584e-09
-3.91618e-06
3.60953e-09
-3.91763e-06
1.45818e-09
-3.91633e-06
-1.29823e-09
-3.91467e-06
-1.65424e-09
-3.91192e-06
-2.75406e-09
-3.90733e-06
-4.59282e-09
-3.90013e-06
-7.20913e-09
-3.89198e-06
-8.16731e-09
-3.8824e-06
-9.59182e-09
-3.87134e-06
-1.10681e-08
-3.85896e-06
-1.23906e-08
-3.8452e-06
-1.37749e-08
-3.83012e-06
-1.50841e-08
-3.81366e-06
-1.64747e-08
-3.79702e-06
-1.66519e-08
-3.77914e-06
-1.7904e-08
-3.75946e-06
-1.96973e-08
-3.73909e-06
-2.03958e-08
-3.71797e-06
-2.11369e-08
-3.69602e-06
-2.19718e-08
-3.67333e-06
-2.27005e-08
-3.65e-06
-2.33371e-08
-3.62623e-06
-2.37728e-08
-3.60184e-06
-2.44001e-08
-3.57627e-06
-2.55654e-08
-3.54972e-06
-2.65525e-08
-3.52366e-06
-2.60629e-08
-3.49693e-06
-2.67301e-08
-3.46963e-06
-2.72998e-08
-3.44152e-06
-2.81088e-08
-3.41358e-06
-2.79421e-08
-3.38544e-06
-2.81253e-08
-3.35696e-06
-2.84646e-08
-3.32826e-06
-2.86856e-08
-3.29923e-06
-2.90202e-08
-3.26987e-06
-2.93407e-08
-3.24021e-06
-2.96509e-08
-3.21028e-06
-2.99101e-08
-3.18052e-06
-2.97443e-08
-3.15076e-06
-2.97355e-08
-3.12108e-06
-2.96676e-08
-3.09131e-06
-2.97477e-08
-3.06151e-06
-2.97755e-08
-3.03161e-06
-2.98764e-08
-3.00164e-06
-2.99467e-08
-2.9717e-06
-2.99129e-08
-2.94184e-06
-2.983e-08
-2.91211e-06
-2.97067e-08
-2.88249e-06
-2.95973e-08
-2.85293e-06
-2.95429e-08
-2.82337e-06
-2.95307e-08
-2.79383e-06
-2.95187e-08
-2.76431e-06
-2.94928e-08
-2.73489e-06
-2.93949e-08
-2.70563e-06
-2.92397e-08
-2.67649e-06
-2.91127e-08
-2.64742e-06
-2.90485e-08
-2.61842e-06
-2.89686e-08
-2.58954e-06
-2.88558e-08
-2.56076e-06
-2.87562e-08
-2.53214e-06
-2.85987e-08
-2.50374e-06
-2.83669e-08
-2.47555e-06
-2.81648e-08
-2.44756e-06
-2.79667e-08
-2.41975e-06
-2.77856e-08
-2.39218e-06
-2.75476e-08
-2.36484e-06
-2.73159e-08
-2.33773e-06
-2.70913e-08
-2.31084e-06
-2.68668e-08
-2.28418e-06
-2.66319e-08
-2.25776e-06
-2.6404e-08
-2.23156e-06
-2.61761e-08
-2.20558e-06
-2.59631e-08
-2.17978e-06
-2.57784e-08
-2.15418e-06
-2.55769e-08
-2.1288e-06
-2.53556e-08
-2.10363e-06
-2.51512e-08
-2.07865e-06
-2.4962e-08
-2.05388e-06
-2.47563e-08
-2.02932e-06
-2.45421e-08
-2.00497e-06
-2.43288e-08
-1.98084e-06
-2.41114e-08
-1.95693e-06
-2.38925e-08
-1.93324e-06
-2.36773e-08
-1.90976e-06
-2.34606e-08
-1.8865e-06
-2.32397e-08
-1.86346e-06
-2.3024e-08
-1.84063e-06
-2.28127e-08
-1.81801e-06
-2.26043e-08
-1.79559e-06
-2.23956e-08
-1.77339e-06
-2.21844e-08
-1.75139e-06
-2.198e-08
-1.72959e-06
-2.17774e-08
-1.70799e-06
-2.15731e-08
-1.68661e-06
-2.13633e-08
-1.66543e-06
-2.11498e-08
-1.64447e-06
-2.0945e-08
-1.62369e-06
-2.07566e-08
-1.60308e-06
-2.05826e-08
-1.58264e-06
-2.04201e-08
-1.56234e-06
-2.02646e-08
-1.54219e-06
-2.01233e-08
-1.52216e-06
-2.00068e-08
-1.50224e-06
-1.9895e-08
-1.48245e-06
-1.97754e-08
-1.46278e-06
-1.96461e-08
-1.44326e-06
-1.95077e-08
-1.42386e-06
-1.93698e-08
-1.4046e-06
-1.92337e-08
-1.38548e-06
-1.90946e-08
-1.36649e-06
-1.89593e-08
-1.34764e-06
-1.88309e-08
-1.32892e-06
-1.87124e-08
-1.31031e-06
-1.85987e-08
-1.29181e-06
-1.84918e-08
-1.2734e-06
-1.83917e-08
-1.2551e-06
-1.82967e-08
-1.23688e-06
-1.8203e-08
-1.21877e-06
-1.81027e-08
-1.20076e-06
-1.79938e-08
-1.18286e-06
-1.78767e-08
-1.16509e-06
-1.77546e-08
-1.14744e-06
-1.76277e-08
-1.12993e-06
-1.75024e-08
-1.11253e-06
-1.73849e-08
-1.09524e-06
-1.72751e-08
-1.07807e-06
-1.71692e-08
-1.06099e-06
-1.7066e-08
-1.04401e-06
-1.69663e-08
-1.02714e-06
-1.68643e-08
-1.01038e-06
-1.67515e-08
-9.93748e-07
-1.66235e-08
-9.77256e-07
-1.64847e-08
-9.60906e-07
-1.63431e-08
-9.44694e-07
-1.62048e-08
-9.28614e-07
-1.60719e-08
-9.12661e-07
-1.59455e-08
-8.96822e-07
-1.58307e-08
-8.81093e-07
-1.57216e-08
-8.65473e-07
-1.56123e-08
-8.49969e-07
-1.54959e-08
-8.34593e-07
-1.5369e-08
-8.19353e-07
-1.52337e-08
-8.04252e-07
-1.50939e-08
-7.89295e-07
-1.49506e-08
-7.74485e-07
-1.48033e-08
-7.59822e-07
-1.46552e-08
-7.45301e-07
-1.45146e-08
-7.3091e-07
-1.43834e-08
-7.16651e-07
-1.42532e-08
-7.02533e-07
-1.41126e-08
-6.88571e-07
-1.39564e-08
-6.74779e-07
-1.37858e-08
-6.61166e-07
-1.36073e-08
-6.4773e-07
-1.34298e-08
-6.34465e-07
-1.32612e-08
-6.2136e-07
-1.31026e-08
-6.08407e-07
-1.29516e-08
-5.956e-07
-1.2804e-08
-5.82945e-07
-1.26519e-08
-5.70453e-07
-1.24883e-08
-5.58137e-07
-1.2312e-08
-5.46005e-07
-1.21271e-08
-5.34061e-07
-1.19404e-08
-5.22298e-07
-1.17586e-08
-5.10702e-07
-1.15909e-08
-4.99257e-07
-1.14407e-08
-4.87951e-07
-1.13013e-08
-4.76788e-07
-1.11579e-08
-4.65784e-07
-1.10004e-08
-4.54949e-07
-1.08314e-08
-4.44288e-07
-1.06595e-08
-4.33798e-07
-1.04871e-08
-4.23479e-07
-1.03169e-08
-4.13319e-07
-1.01573e-08
-4.03309e-07
-1.00073e-08
-3.93456e-07
-9.85104e-09
-3.83775e-07
-9.67984e-09
-3.74268e-07
-9.50455e-09
-3.64932e-07
-9.33332e-09
-3.55749e-07
-9.17905e-09
-3.46717e-07
-9.02906e-09
-3.37822e-07
-8.89153e-09
-3.29051e-07
-8.76691e-09
-3.20438e-07
-8.6085e-09
-3.11937e-07
-8.49624e-09
-3.03582e-07
-8.34951e-09
-2.95447e-07
-8.12804e-09
-2.87415e-07
-8.02493e-09
-2.79473e-07
-7.93382e-09
-2.71816e-07
-7.64813e-09
-2.63893e-07
-7.91524e-09
-2.56134e-07
-7.75188e-09
-2.49189e-07
-6.93791e-09
-2.41959e-07
-7.22341e-09
-2.35157e-07
-6.79618e-09
-2.29329e-07
-5.82366e-09
-2.24842e-07
-4.48338e-09
-2.20487e-07
-4.35409e-09
-2.15063e-07
-5.42422e-09
-2.09552e-07
-5.51302e-09
-2.03806e-07
-5.74976e-09
-1.98053e-07
-5.7594e-09
-1.92345e-07
-5.71779e-09
-1.86714e-07
-5.64154e-09
-1.81137e-07
-5.58984e-09
-1.75629e-07
-5.52464e-09
-1.70121e-07
-5.52634e-09
-1.64766e-07
-5.37702e-09
-1.5948e-07
-5.30931e-09
-1.54273e-07
-5.23158e-09
-1.49307e-07
-4.99136e-09
-1.4428e-07
-5.05344e-09
-1.3944e-07
-4.86623e-09
-1.34858e-07
-4.60675e-09
-1.3058e-07
-4.30359e-09
-1.26362e-07
-4.24273e-09
-1.21929e-07
-4.45756e-09
-1.17644e-07
-4.30806e-09
-1.13405e-07
-4.26068e-09
-1.09322e-07
-4.10444e-09
-1.05397e-07
-3.9439e-09
-1.01661e-07
-3.75546e-09
-9.80314e-08
-3.64865e-09
-9.42025e-08
-3.85419e-09
-9.06216e-08
-3.60644e-09
-8.73085e-08
-3.34255e-09
-8.38648e-08
-3.47944e-09
-8.05136e-08
-3.39205e-09
-7.79872e-08
-2.58242e-09
-7.32457e-08
-4.80368e-09
-6.90593e-08
-4.24335e-09
-6.73268e-08
-1.76493e-09
-6.33684e-08
-3.90403e-09
-6.54925e-08
2.37234e-09
-6.99311e-08
5.16439e-09
-8.61682e-08
1.73663e-08
-9.81189e-08
1.40157e-08
-1.08391e-07
1.39769e-08
-1.13912e-07
8.95694e-09
-1.17265e-07
6.53993e-09
-1.18807e-07
4.51601e-09
-1.1931e-07
3.29807e-09
-1.19352e-07
2.68849e-09
-1.19144e-07
2.3133e-09
-1.18739e-07
2.00888e-09
-1.18187e-07
1.76035e-09
-1.17528e-07
1.55624e-09
-1.16739e-07
1.32396e-09
-1.15763e-07
1.02847e-09
-1.14603e-07
7.27083e-10
-1.13341e-07
4.94624e-10
-1.12062e-07
3.37882e-10
-1.10749e-07
1.52738e-10
-1.09349e-07
-9.50002e-11
-1.07841e-07
-3.69544e-10
-1.06233e-07
-6.39979e-10
-1.04562e-07
-8.7383e-10
-1.02871e-07
-1.05977e-09
-1.01197e-07
-1.20276e-09
-9.95556e-08
-1.31862e-09
-9.79985e-08
-1.37039e-09
-9.64799e-08
-1.45172e-09
-9.49632e-08
-1.55177e-09
-9.34265e-08
-1.65463e-09
-9.18511e-08
-1.75643e-09
-9.02123e-08
-1.86353e-09
-8.84877e-08
-1.97393e-09
-8.66453e-08
-2.09916e-09
-8.46613e-08
-2.2323e-09
-8.2529e-08
-2.35853e-09
-8.02579e-08
-2.46396e-09
-7.78787e-08
-2.53005e-09
-7.54316e-08
-2.54952e-09
-7.29549e-08
-2.52698e-09
-7.04797e-08
-2.47223e-09
-6.80285e-08
-2.39572e-09
-6.56237e-08
-2.2999e-09
-6.32918e-08
-2.182e-09
-6.1063e-08
-2.04012e-09
-5.89611e-08
-1.88132e-09
-5.69896e-08
-1.72708e-09
-5.51255e-08
-1.60411e-09
-5.33245e-08
-1.534e-09
-5.15347e-08
-1.52458e-09
-4.97082e-08
-1.57105e-09
-4.78063e-08
-1.66385e-09
-4.58006e-08
-1.7918e-09
-4.36869e-08
-1.9298e-09
-4.15149e-08
-2.02261e-09
-3.9402e-08
-2.00149e-09
-3.74789e-08
-1.8515e-09
-3.57789e-08
-1.66879e-09
-3.4186e-08
-1.60097e-09
-3.24818e-08
-1.74948e-09
-3.05511e-08
-2.00959e-09
-2.85735e-08
-2.08585e-09
-2.68733e-08
-1.83256e-09
-2.56714e-08
-1.35231e-09
-2.47667e-08
-1.06687e-09
-2.37302e-08
-1.2037e-09
-2.23022e-08
-1.59351e-09
-2.08168e-08
-1.64297e-09
-1.97004e-08
-1.26038e-09
-1.89325e-08
-8.93156e-10
-1.79314e-08
-1.1034e-09
-1.63277e-08
-1.67928e-09
-1.45973e-08
-1.77673e-09
-1.31646e-08
-1.44859e-09
-1.1754e-08
-1.39614e-09
-9.84315e-09
-1.86731e-09
-7.71867e-09
-2.05406e-09
-6.14372e-09
-1.48057e-09
-4.99597e-09
-1.03387e-09
-3.70769e-09
-1.16217e-09
-2.67905e-09
-9.00691e-10
-1.50906e-09
-1.05326e-09
8.15488e-10
8.32096e-05
1.55285e-06
8.24884e-05
1.38054e-06
8.18222e-05
1.28119e-06
8.11814e-05
1.23875e-06
8.05479e-05
1.23724e-06
7.98809e-05
1.32685e-06
7.91625e-05
1.42018e-06
7.84006e-05
1.50613e-06
7.7607e-05
1.59836e-06
7.67892e-05
1.63975e-06
7.59339e-05
1.68799e-06
7.50451e-05
1.76726e-06
7.41268e-05
1.84518e-06
7.31854e-05
1.93675e-06
7.22176e-05
1.98202e-06
7.12074e-05
1.9907e-06
7.01697e-05
1.99831e-06
6.91359e-05
1.97263e-06
6.8069e-05
2.07463e-06
6.69632e-05
2.36498e-06
6.58393e-05
2.46069e-06
6.47304e-05
2.28659e-06
6.36246e-05
2.0759e-06
6.24418e-05
2.19773e-06
6.12495e-05
2.46297e-06
6.00283e-05
2.62854e-06
5.88731e-05
2.45628e-06
5.77193e-05
2.18953e-06
5.64942e-05
2.41106e-06
5.51177e-05
2.84604e-06
5.3683e-05
2.75144e-06
5.24021e-05
2.38299e-06
5.12664e-05
2.27491e-06
5.01725e-05
2.36623e-06
4.89827e-05
2.74502e-06
4.75949e-05
2.71085e-06
4.62801e-05
2.34731e-06
4.50912e-05
2.29015e-06
4.39518e-05
2.41956e-06
4.27697e-05
2.61772e-06
4.13914e-05
2.87468e-06
4.01399e-05
2.42067e-06
3.90035e-05
2.04401e-06
3.79459e-05
2.17825e-06
3.68062e-05
2.46331e-06
3.55397e-05
2.51183e-06
3.42844e-05
2.31311e-06
3.31014e-05
2.24053e-06
3.19739e-05
2.32456e-06
3.08587e-05
2.28415e-06
2.9775e-05
2.09132e-06
2.8681e-05
2.02415e-06
2.75909e-05
2.14125e-06
2.6516e-05
2.14931e-06
2.55395e-05
1.94694e-06
2.461e-05
1.83485e-06
2.36418e-05
2.0245e-06
2.25411e-05
2.24174e-06
2.14318e-05
2.25039e-06
2.05145e-05
1.8969e-06
1.9643e-05
1.70022e-06
1.86812e-05
1.8587e-06
1.76133e-05
2.16214e-06
1.65901e-05
2.07102e-06
1.57686e-05
1.70121e-06
1.49578e-05
1.5257e-06
1.41572e-05
1.53156e-06
1.33994e-05
1.61413e-06
1.26093e-05
1.59103e-06
1.17709e-05
1.58906e-06
1.09832e-05
1.60049e-06
1.0311e-05
1.47485e-06
9.63504e-06
1.34965e-06
8.96231e-06
1.25943e-06
8.32753e-06
1.41787e-06
7.70635e-06
1.4294e-06
7.21056e-06
1.49699e-06
7.27083e-06
1.69917e-06
6.99204e-06
1.66973e-06
5.90177e-06
1.55649e-06
4.14829e-06
2.17144e-06
2.66796e-06
1.55316e-06
2.23829e-06
7.38252e-07
1.8498e-06
5.29862e-07
1.84833e-06
1.14758e-07
1.61812e-06
4.38461e-07
1.36701e-06
4.31208e-07
1.1494e-06
4.36203e-07
1.01155e-06
3.14988e-07
8.3749e-07
3.62606e-07
7.19251e-07
2.32641e-07
6.07953e-07
1.97038e-07
4.9842e-07
1.96115e-07
3.98501e-07
1.97773e-07
3.07951e-07
1.48431e-07
2.28128e-07
9.22507e-08
1.48583e-07
-1.4313e-09
7.58322e-08
-4.88506e-08
-1.54424e-09
-8.84032e-08
2.98955e-08
-1.38617e-07
1.51537e-07
-1.12665e-07
3.29661e-07
-1.1309e-07
4.63373e-07
-3.10407e-08
5.03331e-07
1.99185e-08
5.30945e-07
5.40424e-08
5.05225e-07
1.08036e-07
4.64446e-07
8.53496e-08
4.16872e-07
6.59367e-08
3.44227e-07
1.04274e-07
2.8178e-07
1.03045e-07
2.66706e-07
4.17066e-08
2.62162e-07
2.80538e-08
2.61849e-07
-3.82236e-09
2.59961e-07
-2.82883e-08
2.51804e-07
-7.22689e-08
2.54791e-07
-1.18815e-07
2.44413e-07
-1.55385e-07
2.84828e-07
-1.61017e-07
3.8488e-07
-1.48874e-07
5.55096e-07
-1.96383e-07
7.05741e-07
-1.31782e-07
7.65749e-07
-5.35069e-08
8.06041e-07
-1.19381e-09
8.19077e-07
1.7859e-08
8.2422e-07
1.61401e-09
7.90468e-07
3.4623e-08
7.65572e-07
1.81836e-08
7.66488e-07
5.50737e-09
7.67371e-07
1.48756e-08
7.69302e-07
-3.20531e-10
7.71509e-07
-1.51472e-08
7.67606e-07
6.33147e-09
7.62653e-07
1.24775e-08
7.61181e-07
7.43232e-09
7.6218e-07
-6.00571e-09
7.6023e-07
-4.39205e-09
7.50394e-07
2.0611e-08
7.45582e-07
1.56593e-08
7.40675e-07
1.17009e-08
7.31843e-07
8.66387e-09
7.14121e-07
3.51239e-08
7.02189e-07
2.97454e-08
6.90086e-07
2.74922e-08
6.68464e-07
3.93482e-08
6.44075e-07
4.98483e-08
6.24907e-07
4.42897e-08
6.05185e-07
3.97802e-08
5.76842e-07
4.86791e-08
5.41698e-07
6.97193e-08
5.12626e-07
6.38014e-08
4.81457e-07
6.85492e-08
4.44657e-07
7.72843e-08
4.10967e-07
6.21548e-08
3.75734e-07
6.34552e-08
3.33264e-07
8.70105e-08
2.87894e-07
9.5506e-08
2.457e-07
8.83776e-08
2.04216e-07
8.02717e-08
1.57505e-07
8.88479e-08
1.05227e-07
1.0685e-07
5.04474e-08
1.11897e-07
-1.21231e-09
1.02176e-07
-5.16365e-08
9.85016e-08
-1.08447e-07
1.15572e-07
-1.71901e-07
1.28697e-07
-2.34509e-07
1.23628e-07
-2.94397e-07
1.16792e-07
-3.55799e-07
1.24516e-07
-4.23822e-07
1.38084e-07
-4.9564e-07
1.43891e-07
-5.62948e-07
1.33912e-07
-6.28956e-07
1.29286e-07
-7.02024e-07
1.44908e-07
-7.7884e-07
1.53551e-07
-8.51251e-07
1.46794e-07
-9.24742e-07
1.45423e-07
-1.00172e-06
1.48493e-07
-1.07825e-06
1.52103e-07
-1.15425e-06
1.52469e-07
-1.23096e-06
1.53625e-07
-1.30942e-06
1.55872e-07
-1.3883e-06
1.53854e-07
-1.46816e-06
1.55727e-07
-1.54846e-06
1.58907e-07
-1.62753e-06
1.57159e-07
-1.70496e-06
1.52952e-07
-1.78151e-06
1.49553e-07
-1.85926e-06
1.54824e-07
-1.93736e-06
1.5599e-07
-2.01519e-06
1.54061e-07
-2.0925e-06
1.50037e-07
-2.1694e-06
1.51596e-07
-2.2452e-06
1.50557e-07
-2.31894e-06
1.46933e-07
-2.39086e-06
1.43858e-07
-2.46278e-06
1.42271e-07
-2.53555e-06
1.43317e-07
-2.60662e-06
1.40972e-07
-2.67446e-06
1.35115e-07
-2.74059e-06
1.30352e-07
-2.80589e-06
1.30529e-07
-2.87081e-06
1.29329e-07
-2.93532e-06
1.27865e-07
-2.99564e-06
1.21043e-07
-3.05402e-06
1.1742e-07
-3.11113e-06
1.12407e-07
-3.16824e-06
1.11701e-07
-3.22417e-06
1.11896e-07
-3.27579e-06
1.04313e-07
-3.3255e-06
9.94402e-08
-3.37421e-06
9.54245e-08
-3.42232e-06
9.60031e-08
-3.46625e-06
8.86192e-08
-3.50829e-06
8.45791e-08
-3.54849e-06
8.02487e-08
-3.58629e-06
7.45582e-08
-3.62268e-06
7.35717e-08
-3.65677e-06
6.87346e-08
-3.68917e-06
6.48714e-08
-3.72014e-06
6.216e-08
-3.74727e-06
5.43998e-08
-3.77276e-06
4.89976e-08
-3.79611e-06
4.71844e-08
-3.8176e-06
4.36052e-08
-3.83794e-06
4.0543e-08
-3.85519e-06
3.47325e-08
-3.87041e-06
3.07647e-08
-3.88349e-06
2.63114e-08
-3.8945e-06
2.08028e-08
-3.90365e-06
1.86654e-08
-3.9111e-06
1.51235e-08
-3.91702e-06
1.18281e-08
-3.92018e-06
6.74608e-09
-3.92144e-06
2.6944e-09
-3.92077e-06
-1.97519e-09
-3.91851e-06
-3.91547e-09
-3.91455e-06
-6.70359e-09
-3.90985e-06
-9.26704e-09
-3.90414e-06
-1.28806e-08
-3.89636e-06
-1.58984e-08
-3.88626e-06
-1.96341e-08
-3.87479e-06
-2.24705e-08
-3.86237e-06
-2.47423e-08
-3.84849e-06
-2.75843e-08
-3.83298e-06
-3.05315e-08
-3.81639e-06
-3.29871e-08
-3.79975e-06
-3.32267e-08
-3.78189e-06
-3.56852e-08
-3.76248e-06
-3.90413e-08
-3.74178e-06
-4.10294e-08
-3.72044e-06
-4.24009e-08
-3.69822e-06
-4.412e-08
-3.67525e-06
-4.55965e-08
-3.65178e-06
-4.67445e-08
-3.62749e-06
-4.79958e-08
-3.6024e-06
-4.94338e-08
-3.57676e-06
-5.11526e-08
-3.551e-06
-5.22557e-08
-3.52516e-06
-5.18502e-08
-3.4982e-06
-5.36292e-08
-3.4706e-06
-5.48281e-08
-3.44266e-06
-5.59943e-08
-3.4146e-06
-5.59512e-08
-3.38633e-06
-5.63392e-08
-3.35769e-06
-5.70601e-08
-3.32882e-06
-5.75075e-08
-3.29977e-06
-5.80212e-08
-3.27041e-06
-5.86493e-08
-3.24083e-06
-5.91815e-08
-3.21114e-06
-5.95599e-08
-3.18135e-06
-5.94833e-08
-3.15152e-06
-5.95194e-08
-3.12177e-06
-5.93742e-08
-3.09198e-06
-5.94925e-08
-3.06226e-06
-5.94468e-08
-3.03245e-06
-5.96416e-08
-3.0025e-06
-5.98511e-08
-2.9725e-06
-5.98656e-08
-2.94252e-06
-5.97683e-08
-2.91257e-06
-5.96173e-08
-2.8827e-06
-5.94191e-08
-2.85309e-06
-5.91141e-08
-2.82348e-06
-5.90884e-08
-2.79387e-06
-5.90835e-08
-2.76434e-06
-5.89786e-08
-2.73492e-06
-5.8774e-08
-2.70561e-06
-5.85121e-08
-2.6764e-06
-5.82736e-08
-2.64732e-06
-5.80891e-08
-2.61837e-06
-5.78788e-08
-2.58955e-06
-5.76369e-08
-2.56086e-06
-5.74131e-08
-2.53232e-06
-5.71012e-08
-2.50396e-06
-5.67015e-08
-2.47576e-06
-5.63258e-08
-2.44777e-06
-5.5937e-08
-2.41998e-06
-5.55486e-08
-2.3924e-06
-5.50999e-08
-2.36503e-06
-5.46632e-08
-2.33788e-06
-5.42232e-08
-2.31095e-06
-5.37834e-08
-2.28423e-06
-5.33365e-08
-2.25773e-06
-5.28899e-08
-2.23145e-06
-5.24448e-08
-2.20539e-06
-5.20185e-08
-2.17954e-06
-5.16208e-08
-2.1539e-06
-5.12053e-08
-2.12849e-06
-5.07704e-08
-2.10329e-06
-5.03487e-08
-2.0783e-06
-4.9942e-08
-2.05354e-06
-4.95203e-08
-2.02899e-06
-4.90906e-08
-2.00466e-06
-4.86614e-08
-1.98055e-06
-4.82256e-08
-1.95666e-06
-4.77864e-08
-1.93299e-06
-4.73528e-08
-1.90954e-06
-4.69189e-08
-1.88631e-06
-4.64814e-08
-1.86328e-06
-4.60509e-08
-1.84048e-06
-4.56273e-08
-1.81788e-06
-4.52082e-08
-1.79549e-06
-4.47866e-08
-1.77332e-06
-4.43594e-08
-1.75136e-06
-4.3941e-08
-1.72961e-06
-4.35296e-08
-1.70807e-06
-4.31234e-08
-1.68671e-06
-4.2717e-08
-1.66556e-06
-4.23095e-08
-1.64458e-06
-4.19157e-08
-1.62379e-06
-4.15492e-08
-1.60317e-06
-4.12099e-08
-1.5827e-06
-4.08916e-08
-1.56238e-06
-4.05831e-08
-1.54222e-06
-4.02909e-08
-1.5222e-06
-4.0031e-08
-1.50231e-06
-3.97845e-08
-1.48255e-06
-3.95333e-08
-1.46293e-06
-3.92693e-08
-1.44345e-06
-3.89943e-08
-1.42411e-06
-3.8726e-08
-1.40489e-06
-3.8467e-08
-1.3858e-06
-3.82081e-08
-1.36683e-06
-3.79521e-08
-1.34797e-06
-3.77029e-08
-1.32923e-06
-3.74679e-08
-1.3106e-06
-3.72419e-08
-1.29208e-06
-3.70245e-08
-1.27368e-06
-3.68167e-08
-1.25538e-06
-3.66168e-08
-1.23719e-06
-3.64186e-08
-1.21911e-06
-3.62119e-08
-1.20113e-06
-3.59963e-08
-1.18327e-06
-3.57748e-08
-1.1655e-06
-3.55478e-08
-1.14785e-06
-3.53134e-08
-1.1303e-06
-3.50794e-08
-1.11286e-06
-3.48535e-08
-1.09553e-06
-3.46339e-08
-1.07831e-06
-3.44131e-08
-1.06121e-06
-3.41906e-08
-1.04423e-06
-3.39721e-08
-1.02737e-06
-3.37539e-08
-1.01062e-06
-3.35246e-08
-9.93993e-07
-3.32758e-08
-9.77492e-07
-3.30125e-08
-9.61116e-07
-3.27455e-08
-9.44864e-07
-3.24828e-08
-9.28735e-07
-3.22272e-08
-9.12728e-07
-3.19788e-08
-8.96843e-07
-3.1742e-08
-8.81079e-07
-3.15104e-08
-8.65438e-07
-3.12768e-08
-8.49924e-07
-3.10315e-08
-8.34544e-07
-3.07694e-08
-8.19303e-07
-3.04946e-08
-8.04199e-07
-3.02158e-08
-7.89232e-07
-2.9936e-08
-7.74402e-07
-2.96516e-08
-7.59714e-07
-2.93616e-08
-7.45172e-07
-2.90744e-08
-7.30778e-07
-2.87947e-08
-7.16536e-07
-2.85115e-08
-7.02453e-07
-2.82113e-08
-6.88534e-07
-2.78911e-08
-6.74778e-07
-2.75564e-08
-6.6118e-07
-2.72186e-08
-6.47736e-07
-2.68861e-08
-6.34442e-07
-2.65662e-08
-6.21299e-07
-2.62556e-08
-6.08312e-07
-2.59471e-08
-5.9549e-07
-2.56339e-08
-5.82841e-07
-2.53085e-08
-5.70368e-07
-2.49681e-08
-5.58071e-07
-2.46167e-08
-5.45943e-07
-2.42618e-08
-5.33979e-07
-2.39101e-08
-5.22175e-07
-2.35676e-08
-5.10531e-07
-2.324e-08
-4.99048e-07
-2.29276e-08
-4.87731e-07
-2.2623e-08
-4.7658e-07
-2.23118e-08
-4.65597e-07
-2.19862e-08
-4.54776e-07
-2.16536e-08
-4.44111e-07
-2.13262e-08
-4.33598e-07
-2.10008e-08
-4.23246e-07
-2.06719e-08
-4.13066e-07
-2.03404e-08
-4.03059e-07
-2.00184e-08
-3.9323e-07
-1.96846e-08
-3.83578e-07
-1.93363e-08
-3.74087e-07
-1.90004e-08
-3.64755e-07
-1.86719e-08
-3.55546e-07
-1.83941e-08
-3.46495e-07
-1.80881e-08
-3.37554e-07
-1.78408e-08
-3.28779e-07
-1.7552e-08
-3.20239e-07
-1.71585e-08
-3.11849e-07
-1.68966e-08
-3.03511e-07
-1.66983e-08
-2.95393e-07
-1.62572e-08
-2.86957e-07
-1.64737e-08
-2.78744e-07
-1.61596e-08
-2.71451e-07
-1.49531e-08
-2.64285e-07
-1.50936e-08
-2.57465e-07
-1.45825e-08
-2.51239e-07
-1.31736e-08
-2.46619e-07
-1.18523e-08
-2.41989e-07
-1.14335e-08
-2.36013e-07
-1.18055e-08
-2.29452e-07
-1.10483e-08
-2.22686e-07
-1.11214e-08
-2.16467e-07
-1.16412e-08
-2.10266e-07
-1.17094e-08
-2.0427e-07
-1.17368e-08
-1.98347e-07
-1.16694e-08
-1.92537e-07
-1.15112e-08
-1.86819e-07
-1.13379e-08
-1.812e-07
-1.11832e-08
-1.75566e-07
-1.11284e-08
-1.70009e-07
-1.10479e-08
-1.6475e-07
-1.05976e-08
-1.59609e-07
-1.04095e-08
-1.54575e-07
-1.02221e-08
-1.49725e-07
-9.79672e-09
-1.45235e-07
-9.49781e-09
-1.40826e-07
-9.22887e-09
-1.36156e-07
-9.23031e-09
-1.31416e-07
-8.99843e-09
-1.26707e-07
-8.90786e-09
-1.22251e-07
-8.87332e-09
-1.1778e-07
-8.73991e-09
-1.13459e-07
-8.54433e-09
-1.08984e-07
-8.54466e-09
-1.04956e-07
-7.93659e-09
-1.01239e-07
-7.43561e-09
-9.78377e-08
-7.00633e-09
-9.46102e-08
-7.03794e-09
-9.10085e-08
-7.15667e-09
-8.80232e-08
-6.26574e-09
-8.25171e-08
-8.91698e-09
-7.79448e-08
-7.87801e-09
-7.60938e-08
-4.34398e-09
-7.41985e-08
-6.63496e-09
-7.45916e-08
-3.86428e-09
-7.75898e-08
1.00275e-09
-9.59959e-08
1.39943e-08
-1.15335e-07
2.03276e-08
-1.26244e-07
1.33324e-08
-1.30867e-07
1.83079e-08
-1.30004e-07
7.56909e-09
-1.2626e-07
4.80788e-09
-1.24822e-07
2.31104e-09
-1.23741e-07
4.9239e-10
-1.23024e-07
-9.28763e-10
-1.22706e-07
-1.5275e-09
-1.22328e-07
-1.99633e-09
-1.21745e-07
-2.39439e-09
-1.20941e-07
-2.74665e-09
-1.19987e-07
-2.97676e-09
-1.18927e-07
-3.11333e-09
-1.17771e-07
-3.25884e-09
-1.16544e-07
-3.42865e-09
-1.15274e-07
-3.55918e-09
-1.13924e-07
-3.6388e-09
-1.1262e-07
-3.5006e-09
-1.11259e-07
-3.47688e-09
-1.09787e-07
-3.55802e-09
-1.08188e-07
-3.67614e-09
-1.06492e-07
-3.75753e-09
-1.04741e-07
-3.76468e-09
-1.02978e-07
-3.69044e-09
-1.01237e-07
-3.55806e-09
-9.95284e-08
-3.40775e-09
-9.77937e-08
-3.2787e-09
-9.60447e-08
-3.19677e-09
-9.4278e-08
-3.16884e-09
-9.24803e-08
-3.18983e-09
-9.06413e-08
-3.25303e-09
-8.87611e-08
-3.353e-09
-8.68251e-08
-3.5002e-09
-8.48348e-08
-3.68744e-09
-8.27917e-08
-3.90393e-09
-8.06979e-08
-4.13059e-09
-7.85583e-08
-4.34629e-09
-7.63747e-08
-4.53181e-09
-7.41496e-08
-4.67468e-09
-7.18895e-08
-4.7717e-09
-6.96073e-08
-4.82281e-09
-6.73228e-08
-4.82829e-09
-6.50643e-08
-4.77926e-09
-6.28658e-08
-4.66504e-09
-6.07561e-08
-4.48735e-09
-5.87432e-08
-4.27258e-09
-5.68095e-08
-4.0667e-09
-5.49219e-08
-3.912e-09
-5.30472e-08
-3.82964e-09
-5.11696e-08
-3.81095e-09
-4.92839e-08
-3.84097e-09
-4.73793e-08
-3.91727e-09
-4.54319e-08
-4.0431e-09
-4.3425e-08
-4.18795e-09
-4.1383e-08
-4.25743e-09
-3.93786e-08
-4.13643e-09
-3.74855e-08
-3.81136e-09
-3.57107e-08
-3.44749e-09
-3.39696e-08
-3.28589e-09
-3.21907e-08
-3.41689e-09
-3.04143e-08
-3.626e-09
-2.87813e-08
-3.51832e-09
-2.74244e-08
-2.95767e-09
-2.62197e-08
-2.30395e-09
-2.49196e-08
-2.10306e-09
-2.33625e-08
-2.49673e-09
-2.18148e-08
-2.88718e-09
-2.05473e-08
-2.67636e-09
-1.9548e-08
-2.05414e-09
-1.837e-08
-1.9016e-09
-1.67791e-08
-2.56651e-09
-1.52369e-08
-3.13949e-09
-1.40118e-08
-2.96816e-09
-1.28478e-08
-2.628e-09
-1.12535e-08
-3.05424e-09
-9.7177e-09
-3.5119e-09
-8.64582e-09
-3.27392e-09
-7.60782e-09
-2.69815e-09
-6.43475e-09
-2.40914e-09
-5.33515e-09
-2.47435e-09
-4.01777e-09
-2.42565e-09
-2.40943e-09
-2.86128e-09
6.5875e-10
8.33743e-05
2.32757e-06
8.26462e-05
2.1068e-06
8.19302e-05
1.9969e-06
8.1213e-05
1.95865e-06
8.04857e-05
1.95883e-06
7.97433e-05
2.06107e-06
7.89893e-05
2.17229e-06
7.82225e-05
2.2704e-06
7.74348e-05
2.37903e-06
7.66121e-05
2.45489e-06
7.57527e-05
2.54272e-06
7.48591e-05
2.65655e-06
7.39268e-05
2.77069e-06
7.29768e-05
2.87928e-06
7.20034e-05
2.94997e-06
7.09895e-05
3.001e-06
6.99351e-05
3.04885e-06
6.88263e-05
3.07697e-06
6.77229e-05
3.17416e-06
6.66922e-05
3.39336e-06
6.56687e-05
3.48265e-06
6.45603e-05
3.3936e-06
6.33302e-05
3.30483e-06
6.21191e-05
3.40813e-06
6.09931e-05
3.58871e-06
5.99375e-05
3.68395e-06
5.88294e-05
3.56407e-06
5.75465e-05
3.47227e-06
5.63113e-05
3.6464e-06
5.51573e-05
4.0004e-06
5.37815e-05
4.12813e-06
5.23672e-05
3.79863e-06
5.11415e-05
3.50208e-06
5.00355e-05
3.47336e-06
4.89907e-05
3.79017e-06
4.77316e-05
3.96982e-06
4.63148e-05
3.76381e-06
4.50351e-05
3.56988e-06
4.39228e-05
3.53232e-06
4.28392e-05
3.70198e-06
4.17302e-05
3.98406e-06
4.04643e-05
3.6866e-06
3.91216e-05
3.38665e-06
3.79241e-05
3.37608e-06
3.68066e-05
3.58189e-06
3.56464e-05
3.67382e-06
3.43778e-05
3.5838e-06
3.31087e-05
3.51137e-06
3.19549e-05
3.47924e-06
3.0818e-05
3.42044e-06
2.96358e-05
3.27147e-06
2.84727e-05
3.18369e-06
2.74357e-05
3.17354e-06
2.64115e-05
3.1683e-06
2.53965e-05
2.95679e-06
2.43912e-05
2.83583e-06
2.34099e-05
3.00271e-06
2.23673e-05
3.28234e-06
2.14744e-05
3.14236e-06
2.06292e-05
2.74174e-06
1.95977e-05
2.73117e-06
1.85113e-05
2.94384e-06
1.75722e-05
3.09922e-06
1.67477e-05
2.89262e-06
1.59456e-05