/*--------------------------------*- C++ -*----------------------------------*\
| =========                 |                                                 |
| \\      /  F ield         | OpenFOAM: The Open Source CFD Toolbox           |
|  \\    /   O peration     | Version:  v2006                                 |
|   \\  /    A nd           | Website:  www.openfoam.com                      |
|    \\/     M anipulation  |                                                 |
\*---------------------------------------------------------------------------*/
FoamFile
{
    version     2.0;
    format      ascii;
    class       surfaceScalarField;
    location    "4.8";
    object      alphaPhi0.water;
}
// * * * * * * * * * * * * * * * * * * * * * * * * * * * * * * * * * * * * * //

dimensions      [0 3 -1 0 0 0 0];
oriented        oriented;


internalField   nonuniform List<scalar> 
65390
(
8.24366e-05
-7.27008e-07
8.31696e-05
-7.31953e-07
8.36614e-05
-4.91264e-07
8.40738e-05
-4.12275e-07
8.40579e-05
1.5717e-08
8.37993e-05
2.58275e-07
8.37925e-05
6.28223e-09
8.48577e-05
-1.06579e-06
8.96127e-05
-4.75566e-06
9.89115e-05
-9.29974e-06
0.00011116
-1.22491e-05
0.000124834
-1.36752e-05
0.000138266
-1.34335e-05
0.000148344
-1.00784e-05
0.000151454
-3.1111e-06
0.000146953
4.50006e-06
0.000138191
8.76149e-06
0.000128735
9.44247e-06
0.000120653
8.08376e-06
0.000115288
5.36313e-06
0.000112111
3.18328e-06
0.000110019
2.09103e-06
0.000108349
1.64463e-06
0.000107043
1.31293e-06
0.000106037
1.00347e-06
0.000105492
5.70836e-07
0.000105369
1.27937e-07
0.000105408
-3.86303e-08
0.000105397
9.43248e-09
0.000104965
3.75354e-07
0.000104336
6.44652e-07
0.000103872
4.8146e-07
0.00010374
1.37571e-07
0.00010368
4.08622e-08
0.000103409
2.40239e-07
0.000102982
4.27253e-07
0.000102753
2.80756e-07
0.000102832
-7.6415e-08
0.000103022
-1.91428e-07
0.00010305
-5.76476e-08
0.000102605
4.34667e-07
0.000102001
6.18201e-07
0.000101658
3.64918e-07
0.000101731
-6.85061e-08
0.000101886
-1.58588e-07
0.000101919
-3.95048e-08
0.000101557
3.23967e-07
0.000101154
4.38187e-07
0.00010095
2.1458e-07
0.000100976
-2.56706e-08
0.000100996
-1.98087e-08
0.000100896
8.33032e-08
0.000100771
1.35143e-07
0.000100744
3.53987e-08
0.000100742
1.96706e-09
0.000100663
7.83453e-08
0.000100182
4.74214e-07
9.92127e-05
9.04909e-07
9.83966e-05
8.60735e-07
9.79288e-05
4.89031e-07
9.7562e-05
3.66643e-07
9.70123e-05
5.49625e-07
9.62351e-05
7.77184e-07
9.56e-05
6.36885e-07
9.54367e-05
1.66116e-07
9.5674e-05
-2.381e-07
9.59936e-05
-3.20675e-07
9.61757e-05
-1.94224e-07
9.61778e-05
-3.4162e-08
9.6199e-05
-2.12906e-08
9.63829e-05
-1.83869e-07
9.68524e-05
-4.69456e-07
9.73596e-05
-4.80761e-07
9.7558e-05
-1.80492e-07
9.67391e-05
8.18852e-07
9.4002e-05
2.73668e-06
8.7786e-05
6.21612e-06
7.57096e-05
1.20764e-05
6.2709e-05
1.30005e-05
5.47531e-05
7.94955e-06
4.80531e-05
6.69415e-06
4.52382e-05
2.82128e-06
4.28115e-05
2.43039e-06
4.21683e-05
6.43354e-07
4.31915e-05
-1.02322e-06
4.30385e-05
1.52761e-07
4.2514e-05
5.20583e-07
4.23754e-05
1.28881e-07
4.24575e-05
-8.18161e-08
4.23642e-05
9.82679e-08
4.23346e-05
3.54091e-08
4.23722e-05
-3.75663e-08
4.22019e-05
1.68199e-07
4.20039e-05
1.93966e-07
4.16708e-05
3.32878e-07
4.12268e-05
4.44191e-07
4.03439e-05
8.88752e-07
3.90479e-05
1.29686e-06
3.59345e-05
3.11356e-06
3.14598e-05
4.47432e-06
2.80066e-05
3.45292e-06
2.63937e-05
1.60819e-06
2.62869e-05
1.06167e-07
2.62252e-05
6.18127e-08
2.6763e-05
-5.37562e-07
2.75299e-05
-7.66621e-07
2.79269e-05
-3.9307e-07
2.79938e-05
-6.51005e-08
2.80122e-05
-1.83899e-08
2.81471e-05
-1.349e-07
2.82134e-05
-6.83538e-08
2.83049e-05
-9.15033e-08
2.83026e-05
4.47363e-09
2.8186e-05
1.19378e-07
2.77282e-05
4.58029e-07
2.703e-05
6.98197e-07
2.53413e-05
1.68723e-06
2.33492e-05
1.99009e-06
2.21329e-05
1.21636e-06
2.18823e-05
2.53615e-07
2.21306e-05
-2.48351e-07
2.21488e-05
-1.82865e-08
2.24238e-05
-2.75041e-07
2.27636e-05
-3.46526e-07
2.2858e-05
-9.1083e-08
2.2883e-05
-2.2778e-08
2.28904e-05
-8.02797e-09
2.28567e-05
3.20822e-08
2.28168e-05
4.12871e-08
2.27669e-05
5.02858e-08
2.26631e-05
1.03792e-07
2.25173e-05
1.45724e-07
2.2337e-05
1.78344e-07
2.21254e-05
2.12865e-07
2.18851e-05
2.40868e-07
2.16136e-05
2.71418e-07
2.13168e-05
2.96805e-07
2.09888e-05
3.27846e-07
2.063e-05
3.58742e-07
2.02392e-05
3.9021e-07
1.9821e-05
4.18695e-07
1.93749e-05
4.46045e-07
1.88944e-05
4.80479e-07
1.83782e-05
5.16968e-07
1.78316e-05
5.47035e-07
1.72599e-05
5.71839e-07
1.6655e-05
6.04882e-07
1.6012e-05
6.42955e-07
1.53302e-05
6.80256e-07
1.46227e-05
7.08723e-07
1.38968e-05
7.27264e-07
1.31429e-05
7.5384e-07
1.23575e-05
7.85391e-07
1.15416e-05
8.15457e-07
1.07017e-05
8.39888e-07
9.84576e-06
8.56305e-07
8.97944e-06
8.66736e-07
8.09534e-06
8.83971e-07
7.19692e-06
8.983e-07
6.29909e-06
8.97899e-07
5.40435e-06
8.94723e-07
4.51026e-06
8.93949e-07
3.61778e-06
8.92476e-07
2.74028e-06
8.77572e-07
1.8889e-06
8.51399e-07
1.05991e-06
8.29011e-07
2.48658e-07
8.11223e-07
-5.37594e-07
7.86223e-07
-1.28593e-06
7.48339e-07
-2.00061e-06
7.1472e-07
-2.69068e-06
6.90094e-07
-3.35962e-06
6.69122e-07
-4.00548e-06
6.46067e-07
-4.62408e-06
6.18308e-07
-5.2108e-06
5.86719e-07
-5.77354e-06
5.62747e-07
-6.31749e-06
5.44106e-07
-6.84124e-06
5.24247e-07
-7.34328e-06
5.02043e-07
-7.82245e-06
4.78838e-07
-8.27944e-06
4.56984e-07
-8.71844e-06
4.38997e-07
-9.13962e-06
4.21985e-07
-9.54006e-06
3.9959e-07
-9.91494e-06
3.74601e-07
-1.02709e-05
3.5675e-07
-1.06144e-05
3.43521e-07
-1.09416e-05
3.27236e-07
-1.12525e-05
3.10249e-07
-1.15445e-05
2.91897e-07
-1.18189e-05
2.7442e-07
-1.20769e-05
2.57941e-07
-1.23186e-05
2.4287e-07
-1.25482e-05
2.29543e-07
-1.2764e-05
2.15472e-07
-1.29668e-05
2.01694e-07
-1.31548e-05
1.88066e-07
-1.3328e-05
1.73195e-07
-1.34859e-05
1.57856e-07
-1.36309e-05
1.45075e-07
-1.37661e-05
1.35685e-07
-1.38928e-05
1.27012e-07
-1.40088e-05
1.16027e-07
-1.41135e-05
1.03592e-07
-1.42039e-05
9.00343e-08
-1.42829e-05
7.8965e-08
-1.43533e-05
7.04481e-08
-1.44158e-05
6.28604e-08
-1.44698e-05
5.42797e-08
-1.45139e-05
4.40675e-08
-1.45472e-05
3.29587e-08
-1.45725e-05
2.51622e-08
-1.45925e-05
2.05237e-08
-1.46075e-05
1.4733e-08
-1.46117e-05
3.82558e-09
-1.4605e-05
-6.71122e-09
-1.45903e-05
-1.46646e-08
-1.45692e-05
-2.05766e-08
-1.45452e-05
-2.36882e-08
-1.45176e-05
-2.75777e-08
-1.44835e-05
-3.48854e-08
-1.44395e-05
-4.39377e-08
-1.43869e-05
-5.26143e-08
-1.43282e-05
-5.847e-08
-1.42652e-05
-6.20127e-08
-1.42011e-05
-6.40869e-08
-1.41328e-05
-6.90813e-08
-1.40573e-05
-7.58699e-08
-1.39758e-05
-8.1624e-08
-1.38883e-05
-8.75644e-08
-1.37949e-05
-9.305e-08
-1.3699e-05
-9.55564e-08
-1.36024e-05
-9.65919e-08
-1.35016e-05
-1.01266e-07
-1.33942e-05
-1.07483e-07
-1.32826e-05
-1.11663e-07
-1.31656e-05
-1.16715e-07
-1.30453e-05
-1.20348e-07
-1.29233e-05
-1.21935e-07
-1.27989e-05
-1.25113e-07
-1.26689e-05
-1.29955e-07
-1.25356e-05
-1.33286e-07
-1.24006e-05
-1.34667e-07
-1.22634e-05
-1.37397e-07
-1.21209e-05
-1.42703e-07
-1.19727e-05
-1.48326e-07
-1.18204e-05
-1.52264e-07
-1.16686e-05
-1.51837e-07
-1.15155e-05
-1.53151e-07
-1.13564e-05
-1.59121e-07
-1.1191e-05
-1.65334e-07
-1.10222e-05
-1.68802e-07
-1.08515e-05
-1.70719e-07
-1.0677e-05
-1.74566e-07
-1.04981e-05
-1.78619e-07
-1.03172e-05
-1.80907e-07
-1.0131e-05
-1.86459e-07
-9.93972e-06
-1.91272e-07
-9.74445e-06
-1.95293e-07
-9.54443e-06
-2.00052e-07
-9.34169e-06
-2.02592e-07
-9.13532e-06
-2.06383e-07
-8.92282e-06
-2.1277e-07
-8.70376e-06
-2.19094e-07
-8.47888e-06
-2.24929e-07
-8.25119e-06
-2.27731e-07
-8.02197e-06
-2.29109e-07
-7.78977e-06
-2.32038e-07
-7.5525e-06
-2.37567e-07
-7.30668e-06
-2.45961e-07
-7.05403e-06
-2.5266e-07
-6.79696e-06
-2.57085e-07
-6.5376e-06
-2.59217e-07
-6.27765e-06
-2.59869e-07
-6.01369e-06
-2.64144e-07
-5.74399e-06
-2.69701e-07
-5.46947e-06
-2.74506e-07
-5.1921e-06
-2.77378e-07
-4.91184e-06
-2.80254e-07
-4.62756e-06
-2.84283e-07
-4.33942e-06
-2.88144e-07
-4.05059e-06
-2.8876e-07
-3.76338e-06
-2.87163e-07
-3.47421e-06
-2.89211e-07
-3.18234e-06
-2.9188e-07
-2.88785e-06
-2.9448e-07
-2.59224e-06
-2.9559e-07
-2.29727e-06
-2.94955e-07
-2.00417e-06
-2.93037e-07
-1.71472e-06
-2.89457e-07
-1.42689e-06
-2.8786e-07
-1.14015e-06
-2.86781e-07
-8.55036e-07
-2.85152e-07
-5.7256e-07
-2.82514e-07
-2.95166e-07
-2.77424e-07
-2.46464e-08
-2.70553e-07
2.41445e-07
-2.66118e-07
5.02762e-07
-2.61334e-07
7.59025e-07
-2.56265e-07
1.0108e-06
-2.51775e-07
1.25648e-06
-2.45664e-07
1.49584e-06
-2.39368e-07
1.73006e-06
-2.34188e-07
1.95895e-06
-2.28915e-07
2.18294e-06
-2.24012e-07
2.40044e-06
-2.17534e-07
2.61198e-06
-2.11555e-07
2.81809e-06
-2.06103e-07
3.01903e-06
-2.00947e-07
3.2142e-06
-1.95178e-07
3.4028e-06
-1.886e-07
3.58486e-06
-1.82054e-07
3.76086e-06
-1.75969e-07
3.93149e-06
-1.70619e-07
4.09632e-06
-1.64833e-07
4.25452e-06
-1.58203e-07
4.40635e-06
-1.51835e-07
4.55216e-06
-1.45803e-07
4.69208e-06
-1.39916e-07
4.82575e-06
-1.33678e-07
4.95275e-06
-1.27043e-07
5.0735e-06
-1.20715e-07
5.18839e-06
-1.14859e-07
5.29742e-06
-1.08966e-07
5.40007e-06
-1.02587e-07
5.49633e-06
-9.61675e-08
5.5867e-06
-9.02607e-08
5.67161e-06
-8.47722e-08
5.75071e-06
-7.90257e-08
5.82375e-06
-7.303e-08
5.89082e-06
-6.70663e-08
5.95203e-06
-6.12704e-08
6.00788e-06
-5.59019e-08
6.05862e-06
-5.08232e-08
6.10426e-06
-4.57563e-08
6.14472e-06
-4.0611e-08
6.18e-06
-3.54517e-08
6.21028e-06
-3.03538e-08
6.23574e-06
-2.55309e-08
6.2568e-06
-2.10561e-08
6.27354e-06
-1.66902e-08
6.28593e-06
-1.23041e-08
6.29393e-06
-7.91272e-09
6.2976e-06
-3.57776e-09
6.29738e-06
2.72685e-10
6.29366e-06
3.72596e-09
6.28648e-06
7.16745e-09
6.2757e-06
1.07564e-08
6.26132e-06
1.43168e-08
6.24379e-06
1.75494e-08
6.22339e-06
2.03893e-08
6.20024e-06
2.31492e-08
6.17422e-06
2.60233e-08
6.1454e-06
2.88243e-08
6.11413e-06
3.12887e-08
6.08069e-06
3.34476e-08
6.04506e-06
3.56425e-08
6.00715e-06
3.79085e-08
5.96725e-06
3.98946e-08
5.92565e-06
4.15942e-08
5.88233e-06
4.32985e-08
5.83737e-06
4.49523e-08
5.79081e-06
4.65455e-08
5.74281e-06
4.79985e-08
5.69356e-06
4.92583e-08
5.6432e-06
5.03592e-08
5.59175e-06
5.1466e-08
5.53921e-06
5.2543e-08
5.48564e-06
5.35585e-08
5.43116e-06
5.44514e-08
5.37596e-06
5.51878e-08
5.32023e-06
5.57128e-08
5.26393e-06
5.62666e-08
5.20705e-06
5.68483e-08
5.14973e-06
5.72989e-08
5.09207e-06
5.76378e-08
5.03407e-06
5.79889e-08
4.97574e-06
5.83243e-08
4.91709e-06
5.86478e-08
4.85828e-06
5.88255e-08
4.79946e-06
5.88404e-08
4.74068e-06
5.87951e-08
4.68191e-06
5.87982e-08
4.62313e-06
5.88159e-08
4.56432e-06
5.88443e-08
4.50555e-06
5.87949e-08
4.44693e-06
5.86527e-08
4.38853e-06
5.84269e-08
4.33046e-06
5.81021e-08
4.27248e-06
5.80009e-08
4.21458e-06
5.79226e-08
4.1571e-06
5.75081e-08
4.1001e-06
5.70273e-08
4.04318e-06
5.6933e-08
3.98653e-06
5.66668e-08
3.93032e-06
5.62186e-08
3.87434e-06
5.59812e-08
3.81861e-06
5.57469e-08
3.76323e-06
5.53853e-08
3.70833e-06
5.48915e-08
3.65394e-06
5.4396e-08
3.60005e-06
5.38892e-08
3.54657e-06
5.34879e-08
3.49347e-06
5.31067e-08
3.44087e-06
5.26045e-08
3.38873e-06
5.216e-08
3.33728e-06
5.14633e-08
3.28657e-06
5.07194e-08
3.23647e-06
5.01135e-08
3.18685e-06
4.96232e-08
3.1377e-06
4.91633e-08
3.0891e-06
4.86093e-08
3.04099e-06
4.81273e-08
2.99358e-06
4.74236e-08
2.94676e-06
4.68251e-08
2.89965e-06
4.71304e-08
2.85341e-06
4.62554e-08
2.80673e-06
4.66974e-08
2.76024e-06
4.65027e-08
2.71651e-06
4.37486e-08
2.67297e-06
4.35549e-08
2.62737e-06
4.56176e-08
2.58517e-06
4.22084e-08
2.53452e-06
5.06685e-08
2.48256e-06
5.19686e-08
2.44913e-06
3.34272e-08
2.40811e-06
4.10268e-08
2.3716e-06
3.65151e-08
2.34853e-06
2.30607e-08
2.34356e-06
4.97837e-09
2.33762e-06
5.92988e-09
2.31198e-06
2.56429e-08
2.28631e-06
2.56735e-08
2.25427e-06
3.20446e-08
2.22152e-06
3.27518e-08
2.18587e-06
3.56601e-08
2.14965e-06
3.62301e-08
2.11208e-06
3.75724e-08
2.07441e-06
3.7689e-08
2.03563e-06
3.87898e-08
1.99694e-06
3.87024e-08
1.95984e-06
3.71128e-08
1.92254e-06
3.73206e-08
1.88315e-06
3.93959e-08
1.84614e-06
3.7032e-08
1.80167e-06
4.44773e-08
1.75304e-06
4.86491e-08
1.69378e-06
5.92736e-08
1.63343e-06
6.03595e-08
1.58202e-06
5.14157e-08
1.531e-06
5.10254e-08
1.486e-06
4.5016e-08
1.44008e-06
4.59174e-08
1.39842e-06
4.167e-08
1.35522e-06
4.31987e-08
1.31637e-06
3.88597e-08
1.27226e-06
4.4112e-08
1.23026e-06
4.20024e-08
1.19386e-06
3.64004e-08
1.15366e-06
4.02013e-08
1.1136e-06
4.00571e-08
1.08254e-06
3.10596e-08
1.01079e-06
7.17493e-08
9.514e-07
5.93905e-08
9.32007e-07
1.93904e-08
8.63218e-07
6.87787e-08
8.66428e-07
-3.23187e-09
8.63164e-07
3.23427e-09
1.07043e-06
-2.07325e-07
1.33471e-06
-2.64403e-07
1.46105e-06
-1.26453e-07
1.53467e-06
-7.37239e-08
1.57911e-06
-4.45079e-08
1.59931e-06
-2.02749e-08
1.60381e-06
-4.56019e-09
1.59787e-06
5.88152e-09
1.58411e-06
1.37081e-08
1.56443e-06
1.96343e-08
1.54008e-06
2.42998e-08
1.51209e-06
2.79543e-08
1.48127e-06
3.07824e-08
1.44821e-06
3.30243e-08
1.41326e-06
3.49165e-08
1.37663e-06
3.66013e-08
1.33853e-06
3.80758e-08
1.29922e-06
3.92837e-08
1.25896e-06
4.02313e-08
1.21796e-06
4.09766e-08
1.17633e-06
4.16123e-08
1.13411e-06
4.21982e-08
1.09133e-06
4.27594e-08
1.04806e-06
4.32488e-08
1.00438e-06
4.36649e-08
9.60384e-07
4.39794e-08
9.16402e-07
4.39666e-08
8.72141e-07
4.42451e-08
8.27769e-07
4.43572e-08
7.83401e-07
4.43538e-08
7.39115e-07
4.4273e-08
6.95035e-07
4.40667e-08
6.51254e-07
4.3769e-08
6.0779e-07
4.34518e-08
5.64608e-07
4.31704e-08
5.21652e-07
4.29458e-08
4.78876e-07
4.27651e-08
4.36126e-07
4.27405e-08
3.93247e-07
4.28702e-08
3.50496e-07
4.27433e-08
3.07706e-07
4.2783e-08
2.64798e-07
4.2902e-08
2.21737e-07
4.30559e-08
1.7848e-07
4.32528e-08
1.35009e-07
4.34677e-08
9.13669e-08
4.36397e-08
4.76468e-08
4.37176e-08
3.94926e-09
4.36946e-08
-3.95999e-08
4.3545e-08
-8.29135e-08
4.3307e-08
-1.25923e-07
4.29987e-08
-1.68609e-07
4.26709e-08
-2.11027e-07
4.2394e-08
-2.5334e-07
4.2279e-08
-2.95786e-07
4.24011e-08
-3.38524e-07
4.26774e-08
-3.81441e-07
4.28399e-08
-4.24211e-07
4.26742e-08
-4.66493e-07
4.21664e-08
-5.08338e-07
4.17081e-08
-5.50345e-07
4.1849e-08
-5.92959e-07
4.24366e-08
-6.36275e-07
4.312e-08
-6.79753e-07
4.32673e-08
-7.22471e-07
4.24953e-08
-7.64568e-07
4.18676e-08
-8.06892e-07
4.2094e-08
-8.49907e-07
4.27889e-08
-8.93111e-07
4.29874e-08
-9.35275e-07
4.1962e-08
-9.7658e-07
4.11243e-08
-1.01805e-06
4.1313e-08
-1.05994e-06
4.17668e-08
-1.1013e-06
4.1261e-08
-1.14188e-06
4.0514e-08
-1.1827e-06
4.07796e-08
-1.22478e-06
4.20698e-08
-1.26744e-06
4.268e-08
-1.31016e-06
4.27516e-08
-1.35412e-06
4.40004e-08
-1.40073e-06
4.6657e-08
5.18196e-08
8.25303e-05
-1.49137e-06
8.32622e-05
-1.46511e-06
8.39348e-05
-1.16442e-06
8.4584e-05
-1.0615e-06
8.52578e-05
-6.57686e-07
8.60677e-05
-5.50828e-07
8.73048e-05
-1.22964e-06
9.05182e-05
-4.27771e-06
9.73471e-05
-1.15828e-05
0.000104885
-1.68355e-05
0.000111552
-1.89145e-05
0.000116881
-1.9003e-05
0.000119239
-1.57904e-05
0.000118513
-9.35238e-06
0.000116288
-8.85539e-07
0.000115711
5.07663e-06
0.000115428
9.04328e-06
0.00011481
1.00528e-05
0.000113545
9.34639e-06
0.000111869
7.04368e-06
0.000110191
4.86269e-06
0.000108729
3.55107e-06
0.000107504
2.84902e-06
0.000106648
2.14974e-06
0.000106042
1.61169e-06
0.000105497
1.14211e-06
0.000105045
5.88797e-07
0.000104765
2.40716e-07
0.000104577
1.8472e-07
0.000104475
4.43941e-07
0.00010433
7.73923e-07
0.000103988
8.54539e-07
0.000103547
6.00065e-07
0.000103252
3.33314e-07
0.000103066
3.88721e-07
0.00010302
4.73933e-07
0.000102942
3.86103e-07
0.000102904
-2.94492e-09
0.00010289
-1.79541e-07
0.000102831
-5.06487e-08
0.000102666
5.84816e-07
0.000102501
7.84165e-07
0.000102301
6.11232e-07
0.00010224
2.50062e-08
0.000102261
-1.80226e-07
0.00010225
-5.65738e-08
0.000101973
5.47747e-07
0.00010166
8.02672e-07
0.000101303
5.96539e-07
0.000101145
1.36296e-07
0.000101006
1.0195e-07
0.000100776
3.11146e-07
0.000100593
3.17102e-07
0.000100511
1.37668e-07
0.00010037
1.35892e-07
0.000100053
3.66088e-07
9.94914e-05
1.0057e-06
9.9051e-05
1.34537e-06
9.86593e-05
1.25243e-06
9.82995e-05
8.92756e-07
9.78097e-05
8.64344e-07
9.70218e-05
1.30264e-06
9.61517e-05
1.64729e-06
9.54376e-05
1.38218e-06
9.50513e-05
5.67764e-07
9.47488e-05
6.37995e-08
9.43014e-05
1.19735e-07
9.34957e-05
5.76126e-07
9.25339e-05
9.2768e-07
9.16171e-05
8.95572e-07
9.09455e-05
5.14788e-07
9.03819e-05
1.06716e-07
8.99703e-05
-6.90337e-08
8.96601e-05
1.29517e-07
8.986e-05
6.1856e-07
9.0677e-05
1.91935e-06
9.32867e-05
3.60618e-06
9.80671e-05
7.29587e-06
9.6788e-05
1.42661e-05
8.79527e-05
1.67532e-05
7.47175e-05
1.99293e-05
6.17294e-05
1.58093e-05
5.51236e-05
9.05317e-06
4.95229e-05
6.2507e-06
4.63668e-05
2.13303e-06
4.3791e-05
2.72756e-06
4.18948e-05
2.40263e-06
4.20687e-05
-4.47967e-08
4.31878e-05
-1.20087e-06
4.3024e-05
2.72793e-07
4.28764e-05
1.86121e-07
4.28893e-05
-5.0476e-08
4.26522e-05
4.02322e-07
4.23961e-05
4.48143e-07
4.21828e-05
5.49261e-07
4.1769e-05
8.60955e-07
4.14964e-05
1.16272e-06
4.12574e-05
1.53621e-06
4.18936e-05
2.47734e-06
4.22126e-05
4.15536e-06
4.15498e-05
4.11027e-06
3.86448e-05
4.51025e-06
3.39822e-05
4.76906e-06
3.04646e-05
3.57973e-06
2.83415e-05
1.58581e-06
2.73818e-05
1.97571e-07
2.70864e-05
-9.65953e-08
2.68536e-05
1.67775e-07
2.7385e-05
-5.49829e-07
2.82699e-05
-1.0222e-06
2.87553e-05
-5.58271e-07
2.88664e-05
-2.02581e-07
2.88292e-05
4.16489e-08
2.8735e-05
2.18655e-07
2.87555e-05
4.40888e-07
2.87821e-05
6.71573e-07
2.91209e-05
1.34405e-06
2.91473e-05
1.96378e-06
2.85521e-05
1.81152e-06
2.67992e-05
2.00995e-06
2.46429e-05
1.90793e-06
2.33239e-05
1.29797e-06
2.27341e-05
3.12192e-07
2.26083e-05
-2.20682e-07
2.2488e-05
2.93041e-08
2.27073e-05
-2.39044e-07
2.29913e-05
-2.92275e-07
2.30144e-05
8.4759e-09
2.29237e-05
1.30621e-07
2.28074e-05
1.68736e-07
2.26643e-05
2.46947e-07
2.25243e-05
2.83609e-07
2.2371e-05
3.31526e-07
2.21628e-05
4.21215e-07
2.1916e-05
4.90234e-07
2.16264e-05
5.61179e-07
2.13198e-05
6.03243e-07
2.09853e-05
6.61328e-07
2.06254e-05
7.17344e-07
2.02388e-05
7.7676e-07
1.98211e-05
8.38596e-07
1.93669e-05
9.00322e-07
1.88789e-05
9.66624e-07
1.83648e-05
1.03303e-06
1.78206e-05
1.09159e-06
1.72434e-05
1.14971e-06
1.66297e-05
1.2186e-06
1.59791e-05
1.29163e-06
1.53018e-05
1.35761e-06
1.46017e-05
1.40976e-06
1.38745e-05
1.45575e-06
1.31145e-05
1.51384e-06
1.23226e-05
1.57696e-06
1.15048e-05
1.63232e-06
1.06761e-05
1.66864e-06
9.83197e-06
1.70099e-06
8.96786e-06
1.73133e-06
8.08553e-06
1.766e-06
7.19417e-06
1.78952e-06
6.30233e-06
1.79009e-06
5.41282e-06
1.78426e-06
4.52608e-06
1.78048e-06
3.64457e-06
1.77398e-06
2.77598e-06
1.74621e-06
1.92923e-06
1.69828e-06
1.10319e-06
1.65509e-06
2.95138e-07
1.61915e-06
-4.89024e-07
1.57029e-06
-1.24333e-06
1.50263e-06
-1.96621e-06
1.43763e-06
-2.66336e-06
1.3874e-06
-3.33715e-06
1.34303e-06
-3.9847e-06
1.29363e-06
-4.60629e-06
1.23949e-06
-5.20076e-06
1.1812e-06
-5.76986e-06
1.1322e-06
-6.31709e-06
1.09173e-06
-6.8423e-06
1.04952e-06
-7.34312e-06
1.00291e-06
-7.82419e-06
9.5962e-07
-8.28665e-06
9.19461e-07
-8.72856e-06
8.8167e-07
-9.15041e-06
8.43425e-07
-9.54954e-06
7.98178e-07
-9.92809e-06
7.5287e-07
-1.02875e-05
7.16733e-07
-1.06289e-05
6.85284e-07
-1.09541e-05
6.52483e-07
-1.1265e-05
6.20745e-07
-1.15603e-05
5.86388e-07
-1.1838e-05
5.52147e-07
-1.20984e-05
5.18288e-07
-1.23396e-05
4.85337e-07
-1.25664e-05
4.56295e-07
-1.27791e-05
4.28216e-07
-1.29799e-05
4.02542e-07
-1.31693e-05
3.76741e-07
-1.33448e-05
3.47763e-07
-1.35039e-05
3.16996e-07
-1.36497e-05
2.91182e-07
-1.37845e-05
2.71248e-07
-1.39098e-05
2.52339e-07
-1.40236e-05
2.2986e-07
-1.41255e-05
2.04907e-07
-1.42165e-05
1.80525e-07
-1.42972e-05
1.59666e-07
-1.43681e-05
1.42253e-07
-1.44307e-05
1.25349e-07
-1.44827e-05
1.06549e-07
-1.45256e-05
8.59664e-08
-1.45593e-05
6.63942e-08
-1.45856e-05
5.17701e-08
-1.46049e-05
4.07878e-08
-1.46168e-05
2.64318e-08
-1.46199e-05
6.30686e-09
-1.46143e-05
-1.28682e-08
-1.4601e-05
-2.79884e-08
-1.45804e-05
-4.04612e-08
-1.45544e-05
-4.90123e-08
-1.4524e-05
-5.79222e-08
-1.44877e-05
-7.12358e-08
-1.44449e-05
-8.80103e-08
-1.43932e-05
-1.04388e-07
-1.43362e-05
-1.15541e-07
-1.42735e-05
-1.23909e-07
-1.42068e-05
-1.30702e-07
-1.41353e-05
-1.40579e-07
-1.4059e-05
-1.52227e-07
-1.39779e-05
-1.6345e-07
-1.38914e-05
-1.74242e-07
-1.37998e-05
-1.84633e-07
-1.37031e-05
-1.91536e-07
-1.36041e-05
-1.95597e-07
-1.35019e-05
-2.0352e-07
-1.33945e-05
-2.14897e-07
-1.32828e-05
-2.2392e-07
-1.3166e-05
-2.33963e-07
-1.30451e-05
-2.41168e-07
-1.29215e-05
-2.45077e-07
-1.27972e-05
-2.50222e-07
-1.26696e-05
-2.57566e-07
-1.25374e-05
-2.64869e-07
-1.24013e-05
-2.70804e-07
-1.22607e-05
-2.77916e-07
-1.21174e-05
-2.86585e-07
-1.19709e-05
-2.95073e-07
-1.18206e-05
-3.02559e-07
-1.16673e-05
-3.05028e-07
-1.15118e-05
-3.08458e-07
-1.13533e-05
-3.17871e-07
-1.11889e-05
-3.29767e-07
-1.10207e-05
-3.37368e-07
-1.08501e-05
-3.4132e-07
-1.06769e-05
-3.47686e-07
-1.04985e-05
-3.56594e-07
-1.03152e-05
-3.64219e-07
-1.0127e-05
-3.74671e-07
-9.93519e-06
-3.83023e-07
-9.74064e-06
-3.90267e-07
-9.54339e-06
-3.97441e-07
-9.34226e-06
-4.03674e-07
-9.13411e-06
-4.14516e-07
-8.91938e-06
-4.27511e-07
-8.70068e-06
-4.38156e-07
-8.47745e-06
-4.48201e-07
-8.25103e-06
-4.53993e-07
-8.02152e-06
-4.58652e-07
-7.78731e-06
-4.66206e-07
-7.54804e-06
-4.76878e-07
-7.30239e-06
-4.91978e-07
-7.05131e-06
-5.03851e-07
-6.79669e-06
-5.11711e-07
-6.5385e-06
-5.17324e-07
-6.27621e-06
-5.22158e-07
-6.01002e-06
-5.30335e-07
-5.74023e-06
-5.39591e-07
-5.46739e-06
-5.4736e-07
-5.19111e-06
-5.53678e-07
-4.91063e-06
-5.60747e-07
-4.62652e-06
-5.6843e-07
-4.33968e-06
-5.74987e-07
-4.05156e-06
-5.76798e-07
-3.76325e-06
-5.75387e-07
-3.47335e-06
-5.79101e-07
-3.18092e-06
-5.84313e-07
-2.88714e-06
-5.88364e-07
-2.59348e-06
-5.89288e-07
-2.3009e-06
-5.87572e-07
-2.00889e-06
-5.85073e-07
-1.71817e-06
-5.80183e-07
-1.42938e-06
-5.76687e-07
-1.14265e-06
-5.73529e-07
-8.58995e-07
-5.68872e-07
-5.78962e-07
-5.62582e-07
-3.02635e-07
-5.53776e-07
-3.06325e-08
-5.4258e-07
2.37211e-07
-5.33994e-07
4.99595e-07
-5.23749e-07
7.55689e-07
-5.12392e-07
1.00682e-06
-5.02944e-07
1.25361e-06
-4.92518e-07
1.49541e-06
-4.81211e-07
1.73116e-06
-4.69986e-07
1.96024e-06
-4.58012e-07
2.18402e-06
-4.47811e-07
2.40292e-06
-4.36448e-07
2.6161e-06
-4.24723e-07
2.82297e-06
-4.1296e-07
3.02399e-06
-4.019e-07
3.21914e-06
-3.9032e-07
3.40839e-06
-3.77833e-07
3.59173e-06
-3.65381e-07
3.76855e-06
-3.52772e-07
3.93926e-06
-3.41273e-07
4.10414e-06
-3.29714e-07
4.26304e-06
-3.17109e-07
4.41566e-06
-3.04436e-07
4.56177e-06
-2.91897e-07
4.70152e-06
-2.79614e-07
4.83512e-06
-2.67247e-07
4.9627e-06
-2.54568e-07
5.08414e-06
-2.42106e-07
5.19933e-06
-2.29967e-07
5.30817e-06
-2.17732e-07
5.41061e-06
-2.05043e-07
5.50713e-06
-1.92664e-07
5.5978e-06
-1.80903e-07
5.68257e-06
-1.69515e-07
5.76135e-06
-1.57775e-07
5.83413e-06
-1.45833e-07
5.90117e-06
-1.34123e-07
5.96268e-06
-1.22789e-07
6.01869e-06
-1.11929e-07
6.06926e-06
-1.01474e-07
6.11458e-06
-9.1129e-08
6.1547e-06
-8.08177e-08
6.18984e-06
-7.06354e-08
6.22007e-06
-6.05667e-08
6.24546e-06
-5.08881e-08
6.26622e-06
-4.17294e-08
6.28247e-06
-3.28793e-08
6.29437e-06
-2.4174e-08
6.30202e-06
-1.55599e-08
6.30563e-06
-7.17688e-09
6.30536e-06
5.35811e-10
6.30139e-06
7.72683e-09
6.29372e-06
1.48277e-08
6.28252e-06
2.19517e-08
6.26799e-06
2.884e-08
6.25032e-06
3.52392e-08
6.22962e-06
4.11055e-08
6.206e-06
4.67849e-08
6.17962e-06
5.24122e-08
6.15065e-06
5.77998e-08
6.11918e-06
6.27658e-08
6.08535e-06
6.7286e-08
6.04934e-06
7.16544e-08
6.01127e-06
7.5946e-08
5.97128e-06
7.98778e-08
5.92937e-06
8.34873e-08
5.88561e-06
8.70592e-08
5.84029e-06
9.02839e-08
5.79358e-06
9.3252e-08
5.74548e-06
9.6099e-08
5.69606e-06
9.86967e-08
5.64541e-06
1.01019e-07
5.59364e-06
1.03235e-07
5.54087e-06
1.0527e-07
5.48721e-06
1.07181e-07
5.43269e-06
1.08931e-07
5.37742e-06
1.10418e-07
5.32151e-06
1.11583e-07
5.26505e-06
1.12688e-07
5.20804e-06
1.13824e-07
5.15052e-06
1.1479e-07
5.09259e-06
1.15549e-07
5.03433e-06
1.16237e-07
4.97589e-06
1.16768e-07
4.91728e-06
1.17283e-07
4.85846e-06
1.17676e-07
4.7995e-06
1.17854e-07
4.74051e-06
1.17835e-07
4.68156e-06
1.17802e-07
4.62262e-06
1.17811e-07
4.56367e-06
1.17841e-07
4.50489e-06
1.17631e-07
4.4463e-06
1.17296e-07
4.38784e-06
1.1693e-07
4.32959e-06
1.16403e-07
4.27157e-06
1.16063e-07
4.21385e-06
1.15687e-07
4.15637e-06
1.15038e-07
4.09914e-06
1.14287e-07
4.04208e-06
1.14012e-07
3.98543e-06
1.13335e-07
3.92909e-06
1.12566e-07
3.87316e-06
1.11916e-07
3.81754e-06
1.1138e-07
3.76226e-06
1.1067e-07
3.70726e-06
1.09896e-07
3.65279e-06
1.08869e-07
3.59866e-06
1.08034e-07
3.5451e-06
1.07059e-07
3.4919e-06
1.06322e-07
3.4394e-06
1.05127e-07
3.3871e-06
1.04479e-07
3.33554e-06
1.03047e-07
3.28446e-06
1.01825e-07
3.2341e-06
1.00485e-07
3.18494e-06
9.88087e-08
3.13613e-06
9.7984e-08
3.08845e-06
9.63202e-08
3.0401e-06
9.65002e-08
2.99274e-06
9.48066e-08
2.94464e-06
9.49582e-08
2.89729e-06
9.4505e-08
2.85276e-06
9.08106e-08
2.80929e-06
9.01987e-08
2.7631e-06
9.27286e-08
2.71893e-06
8.79466e-08
2.6649e-06
9.7611e-08
2.61113e-06
9.94084e-08
2.57885e-06
7.45102e-08
2.54733e-06
8.21954e-08
2.51968e-06
7.96328e-08
2.49389e-06
5.92239e-08
2.49343e-06
4.14926e-08
2.49118e-06
3.87615e-08
2.46152e-06
5.27158e-08
2.42034e-06
4.61606e-08
2.37605e-06
5.02211e-08
2.3409e-06
6.07956e-08
2.30277e-06
6.38055e-08
2.26605e-06
6.87739e-08
2.22813e-06
7.06817e-08
2.18914e-06
7.46545e-08
2.14994e-06
7.54548e-08
2.11171e-06
7.58126e-08
2.0744e-06
7.50226e-08
2.03782e-06
7.53937e-08
1.99899e-06
7.75584e-08
1.96057e-06
7.55559e-08
1.9133e-06
8.46143e-08
1.86417e-06
8.85525e-08
1.80564e-06
9.55861e-08
1.74927e-06
1.00867e-07
1.69751e-06
1.00429e-07
1.65158e-06
1.05223e-07
1.60936e-06
1.02603e-07
1.56609e-06
9.46961e-08
1.52017e-06
9.69513e-08
1.47753e-06
8.76658e-08
1.42795e-06
9.55041e-08
1.38427e-06
8.53522e-08
1.34423e-06
8.32423e-08
1.30981e-06
7.32765e-08
1.27637e-06
7.75478e-08
1.24092e-06
7.74396e-08
1.21083e-06
6.64843e-08
1.13596e-06
1.1507e-07
1.07102e-06
1.04992e-07
1.04936e-06
5.27152e-08
1.01599e-06
1.05106e-07
1.05603e-06
1.93479e-08
1.0679e-06
7.52564e-09
1.33152e-06
-1.9481e-07
1.55718e-06
-2.28848e-07
1.67992e-06
-1.19406e-07
1.70036e-06
-2.27639e-07
1.64149e-06
-2.05349e-07
1.63925e-06
-1.24065e-07
1.63755e-06
-7.1902e-08
1.63258e-06
-3.94312e-08
1.62475e-06
-1.23542e-08
1.61256e-06
7.70627e-09
1.59558e-06
2.29306e-08
1.57465e-06
3.46991e-08
1.55041e-06
4.39369e-08
1.52323e-06
5.15269e-08
1.49349e-06
5.77328e-08
1.46163e-06
6.2683e-08
1.42795e-06
6.67318e-08
1.39267e-06
7.02311e-08
1.356e-06
7.32863e-08
1.31823e-06
7.5869e-08
1.27955e-06
7.79751e-08
1.24014e-06
7.96571e-08
1.19998e-06
8.11442e-08
1.15915e-06
8.24528e-08
1.11766e-06
8.36893e-08
1.07555e-06
8.48742e-08
1.0329e-06
8.59083e-08
9.89822e-07
8.67405e-08
9.46486e-07
8.73173e-08
9.02602e-07
8.78515e-08
8.58766e-07
8.80807e-08
8.14888e-07
8.82345e-08
7.70859e-07
8.83821e-08
7.26713e-07
8.84172e-08
6.82648e-07
8.81298e-08
6.38722e-07
8.76936e-08
5.94895e-07
8.72758e-08
5.51117e-07
8.69455e-08
5.07364e-07
8.66957e-08
4.63715e-07
8.64111e-08
4.20322e-07
8.61297e-08
3.77252e-07
8.59372e-08
3.33938e-07
8.60528e-08
2.90608e-07
8.61083e-08
2.47281e-07
8.62241e-08
2.03894e-07
8.64377e-08
1.60416e-07
8.67249e-08
1.16873e-07
8.70059e-08
7.33162e-08
8.7191e-08
2.98118e-08
8.72188e-08
-1.35791e-08
8.70857e-08
-5.68509e-08
8.68224e-08
-9.9987e-08
8.64565e-08
-1.42961e-07
8.59971e-08
-1.85734e-07
8.54826e-08
-2.2832e-07
8.50375e-08
-2.70787e-07
8.48248e-08
-3.13284e-07
8.50039e-08
-3.559e-07
8.54275e-08
-3.98563e-07
8.56712e-08
-4.4108e-07
8.53932e-08
-4.83411e-07
8.47357e-08
-5.25767e-07
8.43395e-08
-5.68311e-07
8.4704e-08
-6.11432e-07
8.59007e-08
-6.54546e-07
8.66048e-08
-6.96887e-07
8.60009e-08
-7.38843e-07
8.4858e-08
-7.81105e-07
8.45431e-08
-8.23957e-07
8.53559e-08
-8.66833e-07
8.60618e-08
-9.08915e-07
8.54433e-08
-9.50433e-07
8.38214e-08
-9.92387e-07
8.33817e-08
-1.03476e-06
8.39491e-08
-1.07681e-06
8.402e-08
-1.11822e-06
8.28384e-08
-1.15997e-06
8.23723e-08
-1.20259e-06
8.34764e-08
-1.24517e-06
8.46703e-08
-1.28736e-06
8.4872e-08
-1.32903e-06
8.44024e-08
-1.36992e-06
8.48623e-08
-1.41101e-06
8.77022e-08
9.3356e-08
8.26699e-05
-2.27667e-06
8.33985e-05
-2.19341e-06
8.41669e-05
-1.93302e-06
8.49645e-05
-1.85966e-06
8.58519e-05
-1.54573e-06
8.68901e-05
-1.58982e-06
8.81269e-05
-2.46722e-06
8.98933e-05
-6.0449e-06
9.14656e-05
-1.31557e-05
9.20109e-05
-1.73813e-05
9.16344e-05
-1.85386e-05
9.04108e-05
-1.778e-05
8.79328e-05
-1.33132e-05
8.57369e-05
-7.15721e-06
8.65108e-05
-1.65994e-06
8.91512e-05
2.436e-06
9.29359e-05
5.25862e-06
9.66324e-05
6.3562e-06
9.98938e-05
6.08615e-06
0.000101927
5.0119e-06
0.000102847
3.94345e-06
0.000103245
3.15358e-06
0.00010354
2.5539e-06
0.000103824
1.8644e-06
0.000104016
1.40667e-06
0.000103968
1.17079e-06
0.000103676
8.80503e-07
0.000103419
5.10743e-07
0.000103359
2.52965e-07
0.000103533
2.65347e-07
0.000103676
5.6566e-07
0.00010358
9.5093e-07
0.000103203
9.77152e-07
0.000102895
7.09189e-07
0.000102791
4.47879e-07
0.000102874
3.91051e-07
0.00010296
3.21061e-07
0.000102892
7.91481e-08
0.000102805
-8.60718e-08
0.000102739
9.6385e-11
0.000102782
4.87773e-07
0.000102866
7.01513e-07
0.000102895
6.27804e-07
0.000102762
1.79336e-07
0.000102636
-5.47602e-08
0.000102496
7.02591e-08
0.000102267
7.41547e-07
0.000101999
1.07051e-06
0.000101632
9.82918e-07
0.000101238
5.56201e-07
0.000100899
4.38332e-07
0.000100588
6.19286e-07
0.000100362
5.52239e-07
0.000100168
3.26076e-07
9.99347e-05
3.46712e-07
9.95525e-05
7.1154e-07
9.92566e-05
1.30162e-06
9.91575e-05
1.44445e-06
9.90567e-05
1.38417e-06
9.86986e-05
1.26567e-06
9.80688e-05
1.46534e-06
9.72691e-05
2.08837e-06
9.65948e-05
2.32169e-06
9.60337e-05
1.98153e-06
9.55167e-05
1.10548e-06
9.48582e-05
7.21608e-07
9.40594e-05
9.02345e-07
9.32413e-05
1.36946e-06
9.24997e-05
1.66927e-06
9.16258e-05
1.79199e-06
9.04341e-05
1.71523e-06
8.89613e-05
1.58486e-06
8.7481e-05
1.40952e-06
8.63918e-05
1.21804e-06
8.56721e-05
1.34423e-06
8.54146e-05
2.17434e-06
8.54342e-05
3.57791e-06
8.74795e-05
5.21323e-06
9.23715e-05
9.37406e-06
9.76084e-05
1.15163e-05
0.000102518
1.502e-05
9.91786e-05
1.91485e-05
8.86589e-05
1.96101e-05
7.44459e-05
2.04718e-05
6.13342e-05
1.52448e-05
5.56429e-05
8.41888e-06
5.00352e-05
8.00921e-06
4.61894e-05
3.78923e-06
4.39705e-05
1.01821e-06
4.26204e-05
1.63018e-06
4.25919e-05
2.16988e-07
4.35899e-05
-1.04851e-06
4.32577e-05
7.29526e-07
4.29162e-05
7.87494e-07
4.2741e-05
7.24279e-07
4.23299e-05
1.27882e-06