/*--------------------------------*- C++ -*----------------------------------*\
| =========                 |                                                 |
| \\      /  F ield         | OpenFOAM: The Open Source CFD Toolbox           |
|  \\    /   O peration     | Version:  v2006                                 |
|   \\  /    A nd           | Website:  www.openfoam.com                      |
|    \\/     M anipulation  |                                                 |
\*---------------------------------------------------------------------------*/
FoamFile
{
    version     2.0;
    format      ascii;
    class       volScalarField;
    location    "4.8";
    object      nut;
}
// * * * * * * * * * * * * * * * * * * * * * * * * * * * * * * * * * * * * * //

dimensions      [0 2 -1 0 0 0 0];


internalField   nonuniform List<scalar> 
33000
(
3.02311e-10
3.16305e-10
3.30184e-10
3.40456e-10
3.51716e-10
3.7213e-10
3.99116e-10
4.3363e-10
4.68602e-10
4.66561e-10
4.50673e-10
4.52062e-10
4.6577e-10
4.9334e-10
5.57083e-10
6.91752e-10
9.44444e-10
1.34426e-09
1.84286e-09
2.32908e-09
2.69398e-09
2.94725e-09
3.14025e-09
3.28685e-09
3.39913e-09
3.47425e-09
3.51127e-09
3.52696e-09
3.5308e-09
3.54377e-09
3.59061e-09
3.63842e-09
3.65893e-09
3.66117e-09
3.66555e-09
3.69935e-09
3.73693e-09
3.74087e-09
3.72456e-09
3.70757e-09
3.71087e-09
3.74909e-09
3.77562e-09
3.76267e-09
3.7339e-09
3.70903e-09
3.70274e-09
3.71896e-09
3.72576e-09
3.70719e-09
3.68098e-09
3.66402e-09
3.65988e-09
3.65078e-09
3.63294e-09
3.60805e-09
3.58604e-09
3.59691e-09
3.62092e-09
3.60679e-09
3.55586e-09
3.50053e-09
3.45632e-09
3.40895e-09
3.32395e-09
3.19258e-09
3.04724e-09
2.91459e-09
2.79545e-09
2.66955e-09
2.5404e-09
2.40424e-09
2.26285e-09
2.13703e-09
2.03893e-09
1.97525e-09
1.85297e-09
1.89473e-09
2.48826e-09
2.95261e-09
3.66816e-09
4.89908e-09
4.65065e-09
5.59875e-09
5.62996e-09
5.71542e-09
5.98697e-09
6.11947e-09
5.92173e-09
5.74372e-09
5.72746e-09
5.50288e-09
5.27298e-09
5.0431e-09
4.7612e-09
4.46012e-09
4.18489e-09
3.88515e-09
3.69872e-09
4.1631e-09
5.19914e-09
5.97366e-09
6.18294e-09
6.00477e-09
6.36298e-09
6.63681e-09
6.8522e-09
6.98074e-09
6.96708e-09
6.64896e-09
6.36186e-09
6.22023e-09
6.12216e-09
6.01374e-09
5.85058e-09
5.6235e-09
5.40929e-09
6.02087e-09
6.79024e-09
6.95845e-09
6.89993e-09
6.74782e-09
7.07006e-09
7.18427e-09
7.33597e-09
7.36989e-09
7.2344e-09
7.15701e-09
7.18257e-09
7.22634e-09
7.26897e-09
7.31488e-09
7.35217e-09
7.40608e-09
7.47362e-09
7.55528e-09
7.64874e-09
7.74916e-09
7.86327e-09
7.99193e-09
8.13626e-09
8.29163e-09
8.46417e-09
8.66465e-09
8.89284e-09
9.13882e-09
9.41047e-09
9.72395e-09
1.00894e-08
1.05137e-08
1.09846e-08
1.15065e-08
1.2112e-08
1.2822e-08
1.36605e-08
1.46491e-08
1.57932e-08
1.71289e-08
1.87845e-08
2.08305e-08
2.33086e-08
2.63504e-08
3.02409e-08
3.54085e-08
4.20489e-08
4.98223e-08
5.76252e-08
6.32317e-08
6.40491e-08
5.94087e-08
5.22779e-08
4.53868e-08
3.96389e-08
3.50673e-08
3.14942e-08
2.85891e-08
2.6143e-08
2.4108e-08
2.24148e-08
2.09953e-08
1.97942e-08
1.87558e-08
1.78363e-08
1.70323e-08
1.63498e-08
1.57533e-08
1.52037e-08
1.47085e-08
1.42675e-08
1.38718e-08
1.35169e-08
1.31958e-08
1.29056e-08
1.26383e-08
1.2392e-08
1.21685e-08
1.19631e-08
1.17737e-08
1.16017e-08
1.14467e-08
1.13048e-08
1.11729e-08
1.10509e-08
1.09386e-08
1.08378e-08
1.07485e-08
1.06678e-08
1.05949e-08
1.05289e-08
1.04683e-08
1.04164e-08
1.03742e-08
1.0337e-08
1.02995e-08
1.02652e-08
1.0239e-08
1.02198e-08
1.02068e-08
1.01975e-08
1.01875e-08
1.01766e-08
1.01674e-08
1.01635e-08
1.01658e-08
1.01732e-08
1.01816e-08
1.01884e-08
1.01984e-08
1.02127e-08
1.02306e-08
1.02549e-08
1.02858e-08
1.03169e-08
1.03462e-08
1.03812e-08
1.04215e-08
1.04658e-08
1.05172e-08
1.05705e-08
1.06227e-08
1.06793e-08
1.07437e-08
1.08116e-08
1.0878e-08
1.09469e-08
1.10237e-08
1.11114e-08
1.12039e-08
1.12898e-08
1.13792e-08
1.14816e-08
1.15945e-08
1.17099e-08
1.18281e-08
1.19584e-08
1.20946e-08
1.22351e-08
1.23918e-08
1.25567e-08
1.2734e-08
1.29252e-08
1.31209e-08
1.3331e-08
1.35633e-08
1.38196e-08
1.4101e-08
1.43964e-08
1.47045e-08
1.50308e-08
1.53939e-08
1.58061e-08
1.62615e-08
1.67618e-08
1.72912e-08
1.78586e-08
1.84976e-08
1.92163e-08
2.00157e-08
2.08947e-08
2.18799e-08
2.30135e-08
2.43255e-08
2.57912e-08
2.74444e-08
2.93953e-08
3.17044e-08
3.44879e-08
3.7841e-08
4.19463e-08
4.69795e-08
5.07005e-08
5.04925e-08
5.03114e-08
5.01604e-08
5.00405e-08
4.99457e-08
4.9871e-08
4.98087e-08
4.97376e-08
4.96555e-08
4.95622e-08
4.94529e-08
4.93293e-08
4.9192e-08
4.59484e-08
4.17448e-08
3.82823e-08
3.53497e-08
3.28382e-08
3.06681e-08
2.87953e-08
2.71642e-08
2.57273e-08
2.44394e-08
2.32778e-08
2.22408e-08
2.13106e-08
2.04708e-08
1.97091e-08
1.90168e-08
1.83913e-08
1.78241e-08
1.73039e-08
1.68243e-08
1.63852e-08
1.5985e-08
1.56177e-08
1.52765e-08
1.496e-08
1.46689e-08
1.4401e-08
1.41542e-08
1.39258e-08
1.37129e-08
1.35143e-08
1.33301e-08
1.31593e-08
1.30015e-08
1.28555e-08
1.27196e-08
1.25925e-08
1.24744e-08
1.23651e-08
1.22649e-08
1.21728e-08
1.20867e-08
1.20061e-08
1.19317e-08
1.18642e-08
1.1803e-08
1.17465e-08
1.16939e-08
1.16459e-08
1.16033e-08
1.15654e-08
1.15308e-08
1.14992e-08
1.14719e-08
1.14488e-08
1.14283e-08
1.14105e-08
1.13959e-08
1.13842e-08
1.13755e-08
1.13695e-08
1.13658e-08
1.13643e-08
1.13653e-08
1.13687e-08
1.13746e-08
1.13827e-08
1.13924e-08
1.14034e-08
1.14166e-08
1.1432e-08
1.14488e-08
1.14673e-08
1.14874e-08
1.15097e-08
1.15338e-08
1.15593e-08
1.15856e-08
1.16133e-08
1.16423e-08
1.16731e-08
1.17056e-08
1.17394e-08
1.17745e-08
1.181e-08
1.18463e-08
1.18854e-08
1.19261e-08
1.19658e-08
1.20071e-08
1.20514e-08
1.2096e-08
1.2141e-08
1.21888e-08
1.22377e-08
1.22881e-08
1.23382e-08
1.23903e-08
1.24419e-08
1.24969e-08
1.25514e-08
1.26088e-08
1.26678e-08
1.27256e-08
1.27853e-08
1.28415e-08
1.29028e-08
1.29594e-08
1.30229e-08
1.30861e-08
1.3153e-08
1.32215e-08
1.32925e-08
1.33369e-08
1.34117e-08
1.34803e-08
1.35608e-08
1.37137e-08
1.38048e-08
1.37393e-08
1.38088e-08
1.37139e-08
1.38651e-08
1.4039e-08
1.42468e-08
1.41298e-08
1.40172e-08
1.41798e-08
1.44029e-08
1.45289e-08
1.46851e-08
1.48388e-08
1.50157e-08
1.51705e-08
1.53604e-08
1.5486e-08
1.56891e-08
1.58659e-08
1.5827e-08
1.57173e-08
1.56258e-08
1.54969e-08
1.54516e-08
1.53942e-08
1.54634e-08
1.53822e-08
1.53549e-08
1.52927e-08
1.52372e-08
1.5178e-08
1.51224e-08
1.50593e-08
1.49978e-08
1.49004e-08
1.483e-08
1.47887e-08
1.46786e-08
1.46659e-08
1.45563e-08
1.42022e-08
1.41514e-08
1.4239e-08
1.39403e-08
1.49377e-08
1.54647e-08
1.87271e-08
1.92282e-08
2.05482e-08
2.11461e-08
2.16993e-08
2.21084e-08
2.24284e-08
2.26718e-08
2.28552e-08
2.30006e-08
2.31194e-08
2.32181e-08
2.33005e-08
2.33685e-08
2.34233e-08
2.34704e-08
2.35112e-08
2.35465e-08
2.35769e-08
2.36029e-08
2.36254e-08
2.36452e-08
2.36628e-08
2.36788e-08
2.36933e-08
2.37062e-08
2.37174e-08
2.37273e-08
2.37354e-08
2.37417e-08
2.37456e-08
2.37471e-08
2.37459e-08
2.3742e-08
2.3736e-08
2.37285e-08
2.37201e-08
2.37118e-08
2.37037e-08
2.3696e-08
2.36894e-08
2.36843e-08
2.3681e-08
2.36797e-08
2.36804e-08
2.36828e-08
2.36863e-08
2.369e-08
2.36934e-08
2.36953e-08
2.36949e-08
2.36922e-08
2.36877e-08
2.36823e-08
2.36772e-08
2.36724e-08
2.3667e-08
2.36593e-08
2.36489e-08
2.36369e-08
2.3626e-08
2.36173e-08
2.36097e-08
2.36e-08
2.35865e-08
2.35714e-08
2.35576e-08
2.35448e-08
2.35293e-08
2.35088e-08
2.34858e-08
2.3463e-08
2.34394e-08
2.34125e-08
2.33822e-08
2.33519e-08
2.33401e-08
2.33046e-08
2.30234e-08
2.28123e-08
1.96962e-08
4.25642e-09
1.16105e-08
1.4788e-08
1.05783e-08
8.42933e-09
9.52213e-09
8.20707e-09
3.033e-09
2.1602e-09
2.5248e-09
3.55084e-09
5.45683e-09
9.9529e-09
1.693e-08
2.13841e-08
2.29043e-08
2.55932e-08
3.1632e-08
3.68806e-08
3.95132e-08
4.66046e-08
5.59578e-08
6.07835e-08
6.55718e-08
7.07599e-08
6.55288e-08
6.5788e-08
8.41503e-08
8.54689e-08
8.75151e-08
8.90097e-08
8.93005e-08
7.38172e-08
8.958e-08
9.09947e-08
9.23492e-08
9.27569e-08
9.25833e-08
9.29615e-08
9.44197e-08
9.65984e-08
9.77228e-08
9.72898e-08
9.61971e-08
9.57729e-08
7.95642e-08
6.90634e-08
8.49338e-08
7.50532e-08
9.63159e-08
9.6346e-08
9.68791e-08
9.7271e-08
9.7209e-08
9.71245e-08
8.63175e-08
4.64696e-08
5.92731e-08
7.11001e-08
6.36024e-08
5.05703e-08
3.22312e-08
2.90531e-08
3.25096e-08
3.97274e-08
5.30298e-08
5.09161e-08
3.22538e-08
2.91642e-08
3.26916e-08
3.60863e-08
3.72001e-08
3.61972e-08
3.51417e-08
3.42299e-08
3.46363e-08
3.85861e-08
2.48363e-08
2.69241e-08
2.928e-08
1.43728e-08
1.84018e-08
2.61486e-08
1.99403e-08
2.11628e-08
8.06361e-09
7.50667e-09
2.4348e-08
1.06958e-08
4.31626e-08
3.78411e-08
6.03966e-08
2.66375e-08
3.31378e-08
3.143e-08
1.87519e-08
2.00054e-08
9.94714e-09
7.01912e-09
7.31354e-09
9.9133e-09
5.37643e-09
3.4364e-09
4.13032e-09
4.77377e-09
7.15944e-09
7.14811e-09
1.31413e-08
1.66551e-08
1.13163e-08
1.91705e-08
4.43691e-08
1.33877e-07
2.88558e-08
2.29645e-08
1.28048e-08
1.16498e-08
1.17973e-08
1.36005e-08
5.86258e-09
4.69804e-09
8.33571e-09
1.16368e-08
1.85466e-08
1.66019e-08
3.32862e-08
3.31436e-08
1.41833e-07
9.49265e-08
8.23521e-08
6.3239e-08
7.23136e-08
7.3017e-08
5.53385e-08
4.57515e-08
3.95871e-08
3.71478e-08
3.44143e-08
3.20807e-08
2.98082e-08
2.74052e-08
2.52587e-08
2.35569e-08
2.21569e-08
2.09175e-08
1.96046e-08
1.83819e-08
1.73441e-08
1.65581e-08
1.591e-08
1.51863e-08
1.4459e-08
1.38099e-08
1.33235e-08
1.30479e-08
1.27117e-08
1.23131e-08
1.19905e-08
1.17926e-08
1.16844e-08
1.16153e-08
1.15638e-08
1.15512e-08
1.16309e-08
1.18172e-08
1.20108e-08
1.21987e-08
1.24871e-08
1.2876e-08
1.33233e-08
1.37222e-08
1.41231e-08
1.46171e-08
1.51425e-08
1.57073e-08
1.62971e-08
1.68593e-08
1.74915e-08
1.82356e-08
1.88977e-08
1.95446e-08
2.03232e-08
2.12449e-08
2.2326e-08
2.33975e-08
2.44784e-08
2.56782e-08
2.68679e-08
2.80298e-08
2.94218e-08
3.10606e-08
3.29936e-08
3.52674e-08
3.7579e-08
3.9884e-08
4.21344e-08
4.46523e-08
4.79994e-08
5.23446e-08
5.68722e-08
6.11773e-08
6.58808e-08
7.2026e-08
8.01324e-08
8.91789e-08
9.94249e-08
1.11082e-07
1.25897e-07
1.46792e-07
1.75954e-07
2.13969e-07
2.63292e-07
3.09355e-07
3.11377e-07
3.13905e-07
3.16126e-07
3.17472e-07
3.18202e-07
3.19014e-07
2.84349e-07
2.33799e-07
1.93565e-07
1.67083e-07
1.52389e-07
1.40855e-07
1.30291e-07
1.20934e-07
1.12883e-07
1.05313e-07
9.91863e-08
9.39269e-08
8.96756e-08
8.68652e-08
8.3859e-08
7.98424e-08
7.62756e-08
7.30629e-08
7.09066e-08
6.9573e-08
6.84038e-08
6.70111e-08
6.49868e-08
6.28004e-08
6.08647e-08
5.94201e-08
5.82468e-08
5.69172e-08
5.58539e-08
5.50776e-08
5.38097e-08
5.19844e-08
5.07283e-08
5.01407e-08
4.9375e-08
4.80389e-08
4.66303e-08
4.54261e-08
4.45682e-08
4.3838e-08
4.32789e-08
4.24587e-08
4.0996e-08
3.97185e-08
3.89101e-08
3.81751e-08
3.76536e-08
3.70893e-08
3.63307e-08
3.54894e-08
3.44948e-08
3.37581e-08
3.32868e-08
3.28154e-08
3.22669e-08
3.17466e-08
3.12763e-08
3.08978e-08
3.04827e-08
2.99944e-08
2.95718e-08
2.92605e-08
2.91149e-08
2.90591e-08
2.88516e-08
2.85601e-08
2.83798e-08
2.83657e-08
2.84364e-08
2.84631e-08
2.85517e-08
2.86984e-08
2.88609e-08
2.91296e-08
2.94705e-08
2.98345e-08
3.02679e-08
3.07075e-08
3.13083e-08
3.20441e-08
3.26461e-08
3.31917e-08
3.385e-08
3.46872e-08
3.56595e-08
3.64714e-08
3.72455e-08
3.82144e-08
3.93337e-08
4.0447e-08
4.16069e-08
4.28575e-08
4.42002e-08
4.57766e-08
4.73778e-08
4.89739e-08
5.07517e-08
5.27839e-08
5.50647e-08
5.7505e-08
6.00579e-08
6.28132e-08
6.59005e-08
6.93802e-08
7.32969e-08
7.76596e-08
8.23403e-08
8.75154e-08
9.33964e-08
1.00198e-07
1.08057e-07
1.16971e-07
1.27145e-07
1.39138e-07
1.53228e-07
1.69976e-07
1.90207e-07
2.14973e-07
2.46687e-07
2.88325e-07
3.43641e-07
4.1145e-07
4.1237e-07
4.13057e-07
4.1382e-07
4.14995e-07
4.16457e-07
4.17381e-07
4.1773e-07
4.17984e-07
4.18951e-07
3.84291e-07
3.39082e-07
3.04823e-07
2.78461e-07
2.56916e-07
2.39172e-07
2.24715e-07
2.12749e-07
2.02451e-07
1.93194e-07
1.8494e-07
1.78503e-07
1.7321e-07
1.68141e-07
1.63527e-07
1.59489e-07
1.55987e-07
1.53061e-07
1.50429e-07
1.47993e-07
1.45919e-07
1.44193e-07
1.42735e-07
1.413e-07
1.39993e-07
1.38927e-07
1.38087e-07
1.37575e-07
1.37089e-07
1.36543e-07
1.36122e-07
1.36007e-07
1.36046e-07
1.36015e-07
1.35965e-07
1.36278e-07
1.36665e-07
1.36944e-07
1.3736e-07
1.37895e-07
1.38534e-07
1.39067e-07
1.3965e-07
1.40087e-07
1.40995e-07
1.41789e-07
1.42734e-07
1.43509e-07
1.4429e-07
1.45048e-07
1.46313e-07
1.47264e-07
1.48674e-07
1.49749e-07
1.51533e-07
1.52172e-07
1.54206e-07
1.55621e-07
1.58083e-07
1.61681e-07
1.63382e-07
1.66538e-07
1.6478e-07
1.67256e-07
1.65275e-07
1.67593e-07
1.79334e-07
1.82941e-07
1.71711e-07
1.75874e-07
1.45098e-07
1.46435e-07
2.24673e-07
2.45111e-07
2.99789e-07
2.81149e-07
3.44091e-07
2.76774e-07
2.12209e-07
1.86222e-07
1.69749e-07
2.02771e-07
2.06752e-07
2.13241e-07
2.1117e-07
2.02825e-07
2.03052e-07
2.05836e-07
2.10775e-07
2.14985e-07
2.05576e-07
2.0602e-07
1.71784e-07
1.56779e-07
1.36335e-07
1.39638e-07
1.49801e-07
1.71345e-07
1.82944e-07
1.78214e-07
1.70849e-07
1.81249e-07
1.59047e-07
1.78207e-07
1.97534e-07
2.26297e-07
2.36707e-07
2.1273e-07
2.30919e-07
1.04887e-07
1.18442e-07
1.17797e-07
1.76429e-07
6.63392e-08
7.53022e-08
2.69094e-08
2.67066e-08
7.81021e-08
7.92979e-08
5.34534e-08
5.56326e-08
1.03413e-07
1.62453e-07
2.27909e-07
3.21193e-07
3.6216e-07
3.55252e-07
3.24552e-07
2.9373e-07
2.69274e-07
2.50866e-07
2.36802e-07
2.25627e-07
2.1689e-07
2.10229e-07
2.0515e-07
2.01052e-07
1.97515e-07
1.9433e-07
1.91354e-07
1.88509e-07
1.86174e-07
1.84391e-07
1.82882e-07
1.81387e-07
1.80936e-07
1.80745e-07
1.80242e-07
1.79889e-07
1.80042e-07
1.80418e-07
1.80734e-07
1.80907e-07
1.81061e-07
1.81512e-07
1.82349e-07
1.83097e-07
1.82685e-07
1.82531e-07
1.82441e-07
1.82143e-07
1.81746e-07
1.81441e-07
1.81372e-07
1.81577e-07
1.81969e-07
1.82443e-07
1.82985e-07
1.83675e-07
1.8452e-07
1.85359e-07
1.85892e-07
1.85827e-07
1.85392e-07
1.85219e-07
1.85667e-07
1.86239e-07
1.86207e-07
1.85213e-07
1.83618e-07
1.8376e-07
1.86138e-07
1.87441e-07
1.86456e-07
1.8461e-07
1.84785e-07
1.87531e-07
1.89377e-07
1.87971e-07
1.86711e-07
1.88147e-07
1.89921e-07
1.88881e-07
1.89639e-07
1.78624e-07
1.54861e-07
2.66561e-07
2.58693e-07
4.63447e-08
9.74979e-08
4.21068e-09
1.17542e-08
1.32415e-08
9.18741e-09
7.16688e-09
7.67328e-09
4.84508e-09
2.66918e-09
2.92834e-09
5.46175e-09
1.08324e-08
2.64789e-08
5.41749e-08
5.5249e-08
5.7141e-08
5.9672e-08
6.27223e-08
6.59206e-08
6.87069e-08
7.08625e-08
7.25765e-08
7.40958e-08
7.21001e-08
6.29587e-08
6.19246e-08
5.896e-08
4.93668e-08
5.16165e-08
7.45002e-08
8.45017e-08
8.548e-08
8.60506e-08
5.7166e-08
5.14465e-08
8.9823e-08
9.1863e-08
9.37982e-08
9.56227e-08
9.73986e-08
6.14447e-08
4.79899e-08
1.01481e-07
1.03662e-07
6.09914e-08
1.06655e-07
4.02348e-08
3.02141e-08
4.9747e-08
3.32736e-08
2.73861e-08
3.68523e-08
3.81168e-08
4.08118e-08
4.33531e-08
5.96738e-08
2.74947e-08
2.87403e-08
1.08876e-07
7.65738e-08
3.55928e-08
1.86101e-08
1.4083e-08
1.8475e-08
2.08035e-08
1.84622e-08
2.03833e-08
1.70541e-08
1.7257e-08
2.28551e-08
2.25333e-08
1.91854e-08
1.72534e-08
1.87774e-08
2.51383e-08
4.30904e-08
4.62231e-08
4.37962e-08
2.9036e-08
3.7048e-08
4.92239e-08
5.0367e-08
4.8534e-08
4.5135e-08
2.64864e-08
1.98731e-08
1.6182e-08
9.19862e-09
7.07149e-09
5.39234e-09
2.54781e-09
6.07924e-09
6.2133e-09
9.01869e-09
1.57166e-08
1.34027e-08
1.02705e-08
1.28023e-08
1.32301e-08
9.19033e-09
6.3451e-09
6.16942e-09
4.82275e-09
3.88846e-09
4.75817e-09
2.27195e-09
1.61117e-09
1.98265e-09
2.56055e-09
3.69677e-09
4.60636e-09
4.40364e-09
6.95226e-09
7.82602e-09
1.69475e-08
9.4593e-08
2.48522e-08
1.22658e-08
1.13174e-08
1.10917e-08
1.06805e-08
7.75272e-09
8.81822e-09
4.01393e-09
3.32923e-09
5.75241e-09
7.3138e-09
1.16285e-08
1.11703e-08
2.90506e-08
3.70887e-08
1.29301e-07
3.94737e-08
3.2358e-08
2.99049e-08
2.96151e-08
3.05735e-08
2.9126e-08
2.49032e-08
2.23773e-08
2.11463e-08
1.96334e-08
1.81035e-08
1.68203e-08
1.58765e-08
1.50121e-08
1.41313e-08
1.32787e-08
1.26529e-08
1.21955e-08
1.17895e-08
1.12275e-08
1.07117e-08
1.03433e-08
1.00964e-08
9.94227e-09
9.73188e-09
9.48455e-09
9.31653e-09
9.2309e-09
9.15433e-09
9.13564e-09
9.19268e-09
9.27805e-09
9.36977e-09
9.50306e-09
9.67318e-09
9.89564e-09
1.0168e-08
1.04231e-08
1.07927e-08
1.12231e-08
1.16179e-08
1.20663e-08
1.25273e-08
1.29881e-08
1.35837e-08
1.42565e-08
1.48695e-08
1.54724e-08
1.60711e-08
1.67377e-08
1.75684e-08
1.85203e-08
1.9469e-08
2.03618e-08
2.14052e-08
2.26269e-08
2.37589e-08
2.4923e-08
2.62504e-08
2.77105e-08
2.94091e-08
3.15535e-08
3.38073e-08
3.60931e-08
3.84596e-08
4.07366e-08
4.3312e-08
4.6851e-08
5.12456e-08
5.60898e-08
6.08653e-08
6.59232e-08
7.22933e-08
7.95859e-08
8.81368e-08
9.96363e-08
1.14439e-07
1.3206e-07
1.53023e-07
1.78158e-07
2.13624e-07
2.5961e-07
2.90445e-07
3.08951e-07
3.43036e-07
3.51272e-07
3.27222e-07
2.80258e-07
2.28558e-07
1.9023e-07
1.65778e-07
1.5282e-07
1.43301e-07
1.30782e-07
1.17015e-07
1.07461e-07
1.01835e-07
9.76949e-08
9.36449e-08
8.87456e-08
8.36338e-08
7.93451e-08
7.71594e-08
7.46472e-08
7.10337e-08
6.81485e-08
6.67428e-08
6.5745e-08
6.44749e-08
6.28934e-08
6.03886e-08
5.77016e-08
5.63458e-08
5.58439e-08
5.53135e-08
5.40637e-08
5.25256e-08
5.12055e-08
4.98731e-08
4.86042e-08
4.78039e-08
4.72691e-08
4.64856e-08
4.49708e-08
4.33205e-08
4.23842e-08
4.18329e-08
4.13673e-08
4.0807e-08
3.96791e-08
3.83499e-08
3.72726e-08
3.66307e-08
3.60605e-08
3.52699e-08
3.45879e-08
3.39648e-08
3.32058e-08
3.2436e-08
3.19194e-08
3.1624e-08
3.11836e-08
3.04092e-08
2.96666e-08
2.92831e-08
2.91777e-08
2.89048e-08
2.84564e-08
2.80408e-08
2.78553e-08
2.7696e-08
2.74233e-08
2.71883e-08
2.70616e-08
2.70815e-08
2.71783e-08
2.7296e-08
2.71896e-08
2.70739e-08
2.72436e-08
2.75339e-08
2.79361e-08
2.83405e-08
2.85606e-08
2.87758e-08
2.91955e-08
2.97806e-08
3.04916e-08
3.11351e-08
3.16213e-08
3.22029e-08
3.30342e-08
3.39856e-08
3.47591e-08
3.54632e-08
3.64437e-08
3.76004e-08
3.87004e-08
3.97638e-08
4.09524e-08
4.22793e-08
4.38172e-08
4.5451e-08
4.69954e-08
4.86416e-08
5.06258e-08
5.28588e-08
5.52607e-08
5.77393e-08
6.03085e-08
6.32165e-08
6.66404e-08
7.05488e-08
7.46873e-08
7.91332e-08
8.40869e-08
8.97052e-08
9.629e-08
1.03733e-07
1.11866e-07
1.21229e-07
1.32427e-07
1.45615e-07
1.6116e-07
1.79418e-07
2.00905e-07
2.27664e-07
2.6206e-07
3.061e-07
3.60716e-07
4.25945e-07
5.00914e-07
5.80145e-07
6.3919e-07
6.32253e-07
5.70144e-07
5.00458e-07
4.41232e-07
3.90462e-07
3.46785e-07
3.12302e-07
2.85515e-07
2.63274e-07
2.44005e-07
2.27641e-07
2.1506e-07
2.05091e-07
1.95698e-07
1.86569e-07
1.78658e-07
1.72942e-07
1.6852e-07
1.63947e-07
1.59242e-07
1.55042e-07
1.51977e-07
1.49797e-07
1.47438e-07
1.44921e-07
1.42842e-07
1.41131e-07
1.39895e-07
1.3872e-07
1.37304e-07
1.36126e-07
1.35541e-07
1.35346e-07
1.35002e-07
1.34456e-07
1.33902e-07
1.338e-07
1.33935e-07
1.33872e-07
1.34063e-07
1.34613e-07
1.35117e-07
1.35368e-07
1.35564e-07
1.3634e-07
1.37271e-07
1.37745e-07
1.37973e-07
1.38864e-07
1.39668e-07
1.40461e-07
1.41419e-07
1.42658e-07
1.43188e-07
1.44117e-07
1.44862e-07
1.46228e-07
1.46842e-07
1.48861e-07
1.50249e-07
1.52222e-07
1.54767e-07
1.56698e-07
1.57394e-07
1.58408e-07
1.60831e-07
1.59999e-07
1.63337e-07
1.75947e-07
1.80637e-07
1.66003e-07
1.69784e-07
1.37856e-07
1.39979e-07
2.29085e-07
2.60901e-07
3.19886e-07
2.78947e-07
2.90114e-07
2.62904e-07
2.23269e-07
2.1508e-07
1.81482e-07
1.88945e-07
1.63443e-07
1.60746e-07
1.86938e-07
1.84833e-07
1.92626e-07
2.00616e-07
2.0138e-07
2.11969e-07
2.13329e-07
2.12097e-07
1.72731e-07
1.55493e-07
1.40899e-07
1.44587e-07
1.46769e-07
1.56293e-07
1.72923e-07
1.8712e-07
1.98021e-07
2.05707e-07
1.61616e-07
1.79599e-07
1.96044e-07
2.26542e-07
1.88795e-07
1.98809e-07
2.20067e-07
1.01158e-07
1.17454e-07
1.09348e-07
1.69956e-07
6.04564e-08
6.88476e-08
2.33297e-08
2.25517e-08
6.64524e-08
6.17488e-08
5.52818e-08
5.43607e-08
6.73336e-08
6.7306e-08
9.01182e-08
1.18295e-07
1.49368e-07
1.80562e-07
2.11088e-07
2.33629e-07
2.45097e-07
2.46255e-07
2.42147e-07
2.35792e-07
2.28209e-07
2.20508e-07
2.13894e-07
2.08903e-07
2.0526e-07
2.024e-07
1.99815e-07
1.9737e-07
1.95185e-07
1.92824e-07
1.89601e-07
1.87717e-07
1.86384e-07
1.85141e-07
1.84165e-07
1.8367e-07
1.83281e-07
1.82731e-07
1.81963e-07
1.81008e-07
1.79989e-07
1.79144e-07
1.78673e-07
1.78619e-07
1.78878e-07
1.79331e-07
1.79936e-07
1.80503e-07
1.80794e-07
1.80798e-07
1.80692e-07
1.80701e-07
1.81007e-07
1.81578e-07
1.82203e-07
1.82642e-07
1.82836e-07
1.82992e-07
1.83424e-07
1.84269e-07
1.85311e-07
1.86129e-07
1.86437e-07
1.86399e-07
1.86225e-07
1.8581e-07
1.84992e-07
1.84038e-07
1.83927e-07
1.85587e-07
1.88133e-07
1.89025e-07
1.87098e-07
1.8485e-07
1.85614e-07
1.89731e-07
1.91944e-07
1.88315e-07
1.8441e-07
1.85641e-07
1.89321e-07
1.87528e-07
1.83918e-07
1.88774e-07
1.81956e-07
1.55705e-07
2.66236e-07
2.54968e-07
4.59547e-08
9.62909e-08
4.16598e-09
1.17303e-08
1.23497e-08
8.50584e-09
6.83927e-09
7.56135e-09
4.79257e-09
2.95751e-09
3.78349e-09
9.48135e-09
2.40917e-08
2.62474e-08
3.091e-08
5.14972e-08
6.47267e-08
6.57162e-08
6.75364e-08
6.99489e-08
7.28059e-08
7.61249e-08
6.8442e-08
5.81191e-08
4.56388e-08
3.85761e-08
3.89321e-08
3.90971e-08
3.76029e-08
3.20608e-08
3.78328e-08
6.6913e-08
6.00325e-08
6.99344e-08
1.09801e-07
5.74552e-08
8.04439e-08
9.91705e-08
1.26539e-07
1.33237e-07
7.6682e-08
4.02781e-08
3.32881e-08
5.92863e-08
8.44524e-08
3.89634e-08
3.54501e-08
2.72714e-08
2.41887e-08
5.82259e-08
3.49144e-08
1.73059e-08
1.78576e-08
2.617e-08
2.46643e-08
2.68672e-08
3.36794e-08
2.4009e-08
4.535e-08
1.60837e-07
9.04163e-08
3.99005e-08
1.37582e-08
1.1868e-08
1.86132e-08
1.55777e-08
1.08828e-08
1.00163e-08
1.11335e-08
1.7441e-08
2.29105e-08
1.66153e-08
1.16986e-08
1.07157e-08
1.10386e-08
1.19612e-08
1.22813e-08
1.26354e-08
1.6042e-08
2.97549e-08
4.15465e-08
4.00264e-08
3.79642e-08
4.81984e-08
4.54003e-08
4.26694e-08
4.0652e-08
3.97688e-08
1.8344e-08
7.86562e-09
6.49879e-09
6.87568e-09
5.33303e-09
5.66424e-09
3.00597e-09
5.2516e-09
6.9944e-09
7.09003e-09
1.00946e-08
9.11178e-09
7.28897e-09
1.25407e-08
3.86595e-08
1.64387e-08
5.94411e-09
5.55404e-09
4.99615e-09
3.89546e-09
4.32126e-09
3.74061e-09
2.05832e-09
1.41117e-09
1.9777e-09
2.37279e-09
3.55909e-09
3.86159e-09
6.52736e-09
7.89475e-09
1.50697e-08
4.68954e-08
6.42102e-08
1.91229e-08
1.40003e-08
1.17854e-08
1.05589e-08
6.86457e-09
7.52926e-09
3.63721e-09
3.11424e-09
5.22612e-09
6.32594e-09
1.03094e-08
1.03375e-08
2.9737e-08
6.67403e-08
4.12899e-08
2.40578e-08
2.05808e-08
2.19468e-08
2.15587e-08
2.19237e-08
2.08087e-08
1.85003e-08
1.69078e-08
1.5984e-08
1.50137e-08
1.41379e-08
1.33953e-08
1.27618e-08
1.21904e-08
1.17746e-08
1.13238e-08
1.08236e-08
1.0396e-08
1.01564e-08
9.97492e-09
9.75885e-09
9.53821e-09
9.38657e-09
9.30412e-09
9.2275e-09
9.13339e-09
9.09417e-09
9.17137e-09
9.30684e-09
9.39699e-09
9.45368e-09
9.57589e-09
9.81127e-09
1.00622e-08
1.02651e-08
1.0561e-08
1.09696e-08
1.1368e-08
1.17622e-08
1.21963e-08
1.26555e-08
1.32327e-08
1.39028e-08
1.44932e-08
1.49889e-08
1.56202e-08
1.64188e-08
1.72898e-08
1.82028e-08
1.90283e-08
1.98786e-08
2.08793e-08
2.19892e-08
2.32045e-08
2.45629e-08
2.59736e-08
2.74345e-08
2.89215e-08
3.06579e-08
3.27404e-08
3.51687e-08
3.78955e-08
4.04228e-08
4.26441e-08
4.54039e-08
4.95898e-08
5.47181e-08
5.99362e-08
6.43275e-08
6.87833e-08
7.52471e-08
8.39566e-08
9.61649e-08
1.09608e-07
1.22603e-07
1.37071e-07
1.55595e-07
1.82009e-07
2.12398e-07
2.24483e-07
2.31018e-07
2.50239e-07
2.66164e-07
2.63542e-07
2.32959e-07
1.9147e-07
1.63554e-07
1.50516e-07
1.46762e-07
1.39554e-07
1.26146e-07
1.11836e-07
1.02198e-07
9.74307e-08
9.49255e-08
9.17025e-08
8.76985e-08
8.29236e-08
7.82251e-08
7.54792e-08
7.30734e-08
7.0034e-08
6.7779e-08
6.67245e-08
6.58075e-08
6.38155e-08
6.12634e-08
5.89535e-08
5.7213e-08
5.65784e-08
5.61977e-08
5.54462e-08
5.42053e-08
5.23709e-08
5.04536e-08
4.90885e-08
4.8451e-08
4.81071e-08
4.73029e-08
4.61195e-08
4.48593e-08
4.33393e-08
4.24452e-08
4.2129e-08
4.15217e-08
4.03675e-08
3.90322e-08
3.81597e-08
3.74911e-08
3.68672e-08
3.61518e-08
3.5097e-08
3.43429e-08
3.37966e-08
3.30632e-08
3.24218e-08
3.20271e-08
3.17448e-08
3.12064e-08
3.04007e-08
2.96328e-08
2.92055e-08
2.90211e-08
2.88238e-08
2.85107e-08
2.81849e-08
2.80134e-08
2.77334e-08
2.72928e-08
2.70475e-08
2.71647e-08
2.73382e-08
2.73417e-08
2.72783e-08
2.71594e-08
2.71141e-08
2.73212e-08
2.76564e-08
2.79659e-08
2.82744e-08
2.85147e-08
2.87018e-08
2.91073e-08
2.9611e-08
3.01413e-08
3.07483e-08
3.1347e-08
3.20027e-08
3.27721e-08
3.35057e-08
3.4215e-08
3.5027e-08
3.60641e-08
3.71471e-08
3.81572e-08
3.91608e-08
4.03968e-08
4.17983e-08
4.32247e-08
4.47532e-08
4.62775e-08
4.79717e-08
4.99703e-08
5.20416e-08
5.42592e-08
5.67658e-08
5.93949e-08
6.22407e-08
6.54901e-08
6.91137e-08
7.30079e-08
7.75543e-08
8.2491e-08
8.76171e-08
9.36072e-08
1.00652e-07
1.08568e-07
1.17473e-07
1.27743e-07
1.39494e-07
1.53207e-07
1.69326e-07
1.87964e-07
2.10398e-07
2.37793e-07
2.70265e-07
3.07254e-07
3.4736e-07
3.88012e-07
4.26834e-07
4.53423e-07
4.53983e-07
4.32753e-07
4.02353e-07
3.70473e-07
3.39443e-07
3.11509e-07
2.88139e-07
2.67202e-07
2.48077e-07
2.31624e-07
2.18241e-07
2.0775e-07
1.98711e-07
1.9013e-07
1.8214e-07
1.75187e-07
1.69682e-07
1.65382e-07
1.6112e-07
1.56752e-07
1.53018e-07
1.50351e-07
1.48265e-07
1.45892e-07
1.43474e-07
1.41453e-07
1.39777e-07
1.3864e-07
1.37658e-07
1.36363e-07
1.35261e-07
1.3479e-07
1.34532e-07
1.34016e-07
1.33493e-07
1.33095e-07
1.33117e-07
1.33252e-07
1.33324e-07
1.3357e-07
1.33997e-07
1.3444e-07
1.34771e-07
1.351e-07
1.35793e-07
1.36761e-07
1.37257e-07
1.37867e-07
1.38526e-07
1.39405e-07
1.39951e-07
1.41357e-07
1.42154e-07
1.43334e-07
1.43122e-07
1.44411e-07
1.44879e-07
1.4691e-07
1.48475e-07
1.51371e-07
1.47716e-07
1.50873e-07
1.47253e-07
1.52863e-07
1.66942e-07
1.75897e-07
1.85424e-07
1.63043e-07
1.65768e-07
1.32446e-07
1.33996e-07
2.33665e-07
2.76364e-07
3.38287e-07
2.87162e-07
2.37466e-07
2.14076e-07
2.31839e-07
2.17033e-07
1.82067e-07
1.85913e-07
1.53353e-07
1.48753e-07
1.73191e-07
1.66092e-07
1.75066e-07
1.8e-07
1.85524e-07
2.15296e-07
2.20112e-07
1.78783e-07
1.69746e-07
1.62464e-07
1.46374e-07
1.51789e-07
1.44975e-07
1.53146e-07
1.70933e-07
1.9147e-07
2.00288e-07
2.11148e-07
1.66608e-07
1.80763e-07
2.06309e-07
2.17446e-07
1.64699e-07
1.9384e-07
8.59995e-08
1.06426e-07
2.34423e-07
1.12288e-07
1.85781e-07
5.57669e-08
6.25781e-08
2.09939e-08
2.05741e-08
6.60437e-08
6.39429e-08
5.52445e-08
4.93634e-08
6.05939e-08
7.2779e-08
1.37379e-07
1.55877e-07
1.17083e-07
1.14271e-07
1.34477e-07
1.51149e-07
1.68227e-07
1.85636e-07
2.00272e-07
2.09602e-07
2.14e-07
2.15342e-07
2.14246e-07
2.10984e-07
2.06855e-07
2.0309e-07
1.99987e-07
1.97402e-07
1.95229e-07
1.92782e-07
1.90438e-07
1.88992e-07
1.87085e-07
1.8376e-07
1.82559e-07
1.82099e-07
1.81629e-07
1.81621e-07
1.82036e-07
1.82276e-07
1.81999e-07
1.81408e-07
1.80384e-07
1.79252e-07
1.78357e-07
1.78007e-07
1.78155e-07
1.78511e-07
1.7897e-07
1.79431e-07
1.80055e-07
1.80214e-07
1.80116e-07
1.80047e-07
1.80228e-07
1.80758e-07
1.81445e-07
1.81967e-07
1.82104e-07
1.81959e-07
1.81963e-07
1.82533e-07
1.83705e-07
1.84996e-07
1.85735e-07
1.85733e-07
1.85255e-07
1.84672e-07
1.8414e-07
1.83701e-07
1.83685e-07
1.84712e-07
1.87031e-07
1.88715e-07
1.87811e-07
1.85789e-07
1.85648e-07
1.88869e-07
1.92025e-07
1.90213e-07
1.85652e-07
1.84932e-07
1.87317e-07
1.86862e-07
1.83529e-07
1.85586e-07
1.94367e-07
1.86029e-07
1.58621e-07
2.68078e-07
2.51946e-07
4.56954e-08
9.69756e-08
4.12392e-09
1.17706e-08
1.20895e-08
8.24308e-09
6.65092e-09
7.30608e-09
4.5808e-09
2.7458e-09
3.59457e-09
1.45145e-08
2.51678e-08
1.04736e-08
9.5648e-09
1.38571e-08
2.22291e-08
3.24695e-08
4.02366e-08
4.20025e-08
3.96137e-08
3.59162e-08
3.13436e-08
2.6723e-08
2.31421e-08
2.23239e-08
2.38309e-08
2.37285e-08
2.24224e-08
2.2404e-08
2.91673e-08
5.45662e-08
5.14248e-08
2.65937e-08
2.72042e-08
2.82112e-08
4.23294e-08
8.28744e-08
1.26944e-07
1.57269e-07
4.8375e-08
3.42234e-08
3.70678e-08
7.27994e-08
3.56969e-07
3.4102e-08
1.88935e-08
2.18812e-08
3.28662e-08
5.25682e-08
4.08047e-08
1.5201e-08
1.27907e-08
1.87027e-08
2.08244e-08
2.11123e-08
2.15715e-08
2.58829e-08
7.67093e-08
9.41778e-08
9.85125e-08
4.03722e-08
1.61741e-08
1.65048e-08
2.56465e-08
1.46839e-08
8.83431e-09
8.49822e-09
1.01781e-08
1.32568e-08
1.3255e-08
1.08274e-08
9.2641e-09
9.19896e-09
1.01884e-08
1.00723e-08
9.66078e-09
9.27844e-09
9.95765e-09
1.28907e-08
1.91828e-08
3.21661e-08
3.81837e-08
2.73508e-08
2.78172e-08
2.70062e-08
2.87101e-08
5.37648e-08
5.31781e-08
3.4282e-08
1.8869e-08
1.24061e-08
4.99652e-09
5.0263e-09
6.06729e-09
5.02671e-09
6.50835e-09
3.666e-09
6.69435e-09
7.65907e-09
8.58515e-09
1.76403e-08
1.34956e-08
9.37365e-09
1.85993e-08
9.17707e-08
1.51344e-08
6.00239e-09
6.62682e-09
1.12842e-08
6.09108e-09
3.58914e-09
4.24001e-09
2.04606e-09
1.43623e-09
2.00028e-09
2.36336e-09
3.60396e-09
3.93629e-09
6.66161e-09
8.1886e-09
1.841e-08
1.01572e-07
7.11618e-08
2.67213e-08
1.81295e-08
1.31516e-08
1.03193e-08
6.29209e-09
6.65637e-09
3.44966e-09
3.06e-09
5.02688e-09
5.8029e-09
9.29513e-09
9.86443e-09
1.69747e-08
5.25163e-08
7.99197e-08
2.38352e-08
1.72588e-08
1.7723e-08
1.71408e-08
1.68507e-08
1.58566e-08
1.44424e-08
1.34655e-08
1.29955e-08
1.25008e-08
1.20348e-08
1.1577e-08
1.11119e-08
1.06835e-08
1.03954e-08
1.02064e-08
1.00452e-08
9.78742e-09
9.56842e-09
9.45062e-09
9.42717e-09
9.39108e-09
9.31728e-09
9.278e-09
9.31307e-09
9.41608e-09
9.49301e-09
9.54178e-09
9.65819e-09
9.85919e-09
1.00692e-08
1.02641e-08
1.04748e-08
1.07925e-08
1.11958e-08
1.15694e-08
1.19835e-08
1.24666e-08
1.29698e-08
1.35256e-08
1.41101e-08
1.46463e-08
1.53069e-08
1.61437e-08
1.69956e-08
1.78062e-08
1.85869e-08
1.94605e-08
2.03702e-08
2.13572e-08
2.27244e-08
2.42322e-08
2.56234e-08
2.71188e-08
2.85519e-08
2.98323e-08
3.16539e-08
3.41384e-08
3.69699e-08
3.97977e-08
4.21519e-08
4.44387e-08
4.78967e-08
5.24212e-08
5.7666e-08
6.24953e-08
6.65855e-08
7.20445e-08
8.00855e-08
9.08385e-08
1.01785e-07
1.11843e-07
1.23036e-07
1.37392e-07
1.54542e-07
1.71899e-07
1.82638e-07
1.88315e-07
1.99995e-07
2.13237e-07
2.11376e-07
1.88478e-07
1.61563e-07
1.45702e-07
1.40598e-07
1.3897e-07
1.30305e-07
1.17234e-07
1.05815e-07
9.92851e-08
9.52566e-08
9.11938e-08
8.77049e-08
8.51648e-08
8.21106e-08
7.81952e-08
7.37195e-08
7.06561e-08
6.90753e-08
6.79214e-08
6.6381e-08
6.47732e-08
6.27153e-08
5.99422e-08
5.84256e-08
5.78029e-08
5.71582e-08
5.61929e-08
5.51063e-08
5.38153e-08
5.16886e-08
4.98597e-08
4.91051e-08
4.88973e-08