/*--------------------------------*- C++ -*----------------------------------*\
| =========                 |                                                 |
| \\      /  F ield         | OpenFOAM: The Open Source CFD Toolbox           |
|  \\    /   O peration     | Version:  v2006                                 |
|   \\  /    A nd           | Website:  www.openfoam.com                      |
|    \\/     M anipulation  |                                                 |
\*---------------------------------------------------------------------------*/
FoamFile
{
    version     2.0;
    format      ascii;
    class       volScalarField;
    location    "4.8";
    object      omega;
}
// * * * * * * * * * * * * * * * * * * * * * * * * * * * * * * * * * * * * * //

dimensions      [0 0 -1 0 0 0 0];


internalField   nonuniform List<scalar> 
33000
(
0.801286
0.801333
0.801382
0.801437
0.801505
0.801591
0.801698
0.801822
0.801968
0.802151
0.802393
0.802706
0.803103
0.8036
0.804268
0.805284
0.806787
0.808753
0.810947
0.813027
0.814739
0.81601
0.81689
0.817468
0.817838
0.818072
0.818228
0.81834
0.818433
0.818517
0.818597
0.818666
0.818732
0.818794
0.818853
0.818902
0.818938
0.818961
0.818979
0.819001
0.819012
0.818997
0.818965
0.818917
0.818864
0.818816
0.81876
0.818687
0.818605
0.818519
0.818432
0.818344
0.818259
0.818175
0.818095
0.818015
0.817927
0.817824
0.817681
0.817492
0.817251
0.816947
0.816569
0.816113
0.815576
0.814964
0.814346
0.813741
0.813122
0.812459
0.811763
0.811085
0.810496
0.81004
0.809746
0.809609
0.80964
0.809867
0.81036
0.811148
0.812031
0.812704
0.813013
0.81299
0.812663
0.81263
0.81262
0.812598
0.81253
0.812395
0.812138
0.811725
0.811221
0.810637
0.810003
0.809367
0.808805
0.808355
0.808094
0.8081
0.808424
0.808919
0.809304
0.809459
0.809395
0.809284
0.80926
0.809254
0.809218
0.809143
0.809056
0.808949
0.808814
0.808638
0.808414
0.808161
0.807937
0.807839
0.807916
0.808062
0.808143
0.808183
0.808166
0.808161
0.808195
0.808215
0.808228
0.808235
0.808238
0.80824
0.808242
0.808244
0.808246
0.808242
0.808236
0.808229
0.808222
0.808214
0.808207
0.8082
0.808189
0.808176
0.808162
0.808147
0.80813
0.808111
0.808092
0.808074
0.808057
0.808041
0.808022
0.808003
0.807985
0.807967
0.807951
0.807933
0.807911
0.80789
0.80787
0.80785
0.807829
0.807809
0.807797
0.807795
0.807803
0.807819
0.807846
0.807881
0.807918
0.807947
0.807969
0.807985
0.807996
0.808
0.807996
0.807986
0.807971
0.807959
0.807948
0.807936
0.807923
0.807912
0.807901
0.807891
0.80788
0.807868
0.807857
0.807847
0.807837
0.807827
0.807815
0.807803
0.807792
0.80778
0.807766
0.807751
0.807737
0.807722
0.807705
0.807687
0.807671
0.807657
0.807643
0.807627
0.807608
0.80759
0.807573
0.807558
0.807544
0.807529
0.807512
0.807495
0.807481
0.807467
0.807449
0.807429
0.80741
0.807391
0.807374
0.807357
0.807336
0.807311
0.807284
0.807257
0.807232
0.807208
0.807182
0.807153
0.807124
0.807095
0.807066
0.807039
0.807013
0.806985
0.806955
0.806926
0.806898
0.806869
0.806842
0.806813
0.806783
0.806754
0.806725
0.806696
0.806665
0.806633
0.806601
0.806572
0.806542
0.806508
0.806474
0.806442
0.806409
0.806375
0.806342
0.806308
0.806273
0.806237
0.806202
0.806166
0.806131
0.806095
0.806058
0.80602
0.805983
0.805946
0.80591
0.805873
0.805834
0.805795
0.805756
0.805717
0.805679
0.805641
0.805602
0.805561
0.805521
0.805481
0.80544
0.805399
0.805358
0.805317
0.805279
0.805242
0.805206
0.805173
0.805142
0.805113
0.805087
0.805062
0.80504
0.80502
0.805003
0.804988
0.804977
0.804969
0.804961
0.804955
0.804947
0.804938
0.804928
0.804917
0.804903
0.804889
0.804873
0.804857
0.804838
0.804819
0.804798
0.804775
0.804752
0.804727
0.8047
0.804672
0.804643
0.804613
0.804583
0.804552
0.804523
0.804493
0.804464
0.804436
0.804408
0.80438
0.804352
0.804325
0.804298
0.804271
0.804244
0.804218
0.804191
0.804165
0.804138
0.804111
0.804085
0.804058
0.804031
0.804005
0.803978
0.803951
0.803923
0.803896
0.803869
0.803841
0.803813
0.803785
0.803757
0.803729
0.803701
0.803672
0.803644
0.803615
0.803586
0.803558
0.803529
0.8035
0.803471
0.803442
0.803413
0.803384
0.803354
0.803325
0.803296
0.803267
0.803238
0.803209
0.80318
0.803151
0.803122
0.803093
0.803064
0.803035
0.803007
0.802978
0.80295
0.802922
0.802893
0.802865
0.802838
0.80281
0.802782
0.802755
0.802727
0.8027
0.802673
0.802647
0.80262
0.802594
0.802567
0.802541
0.802515
0.80249
0.802464
0.802439
0.802413
0.802389
0.802364
0.802339
0.802315
0.802291
0.802267
0.802243
0.802219
0.802196
0.802172
0.802149
0.802126
0.802104
0.802081
0.802059
0.802037
0.802016
0.801994
0.801973
0.801952
0.801931
0.80191
0.801889
0.801868
0.801848
0.801828
0.801808
0.801788
0.801768
0.801745
0.801726
0.801712
0.80169
0.801683
0.801673
0.80169
0.801676
0.801675
0.801663
0.801656
0.801645
0.801635
0.801624
0.801614
0.801603
0.801592
0.801581
0.801568
0.801557
0.801548
0.801535
0.801531
0.801525
0.801532
0.801524
0.801522
0.801516
0.80151
0.801504
0.801499
0.801493
0.801487
0.801477
0.80147
0.801466
0.801455
0.801454
0.801443
0.801408
0.801403
0.801412
0.801383
0.801482
0.801534
0.801858
0.801907
0.802038
0.802097
0.802152
0.802193
0.802225
0.802249
0.802267
0.802282
0.802293
0.802303
0.802311
0.802318
0.802324
0.802328
0.802333
0.802336
0.802339
0.802342
0.802344
0.802346
0.802348
0.80235
0.802351
0.802353
0.802354
0.802355
0.802356
0.802356
0.802357
0.802357
0.802357
0.802357
0.802356
0.802356
0.802355
0.802354
0.802353
0.802353
0.802352
0.802352
0.802351
0.802351
0.802352
0.802352
0.802352
0.802353
0.802353
0.802353
0.802353
0.802353
0.802352
0.802352
0.802351
0.80235
0.80235
0.802349
0.802348
0.802347
0.802345
0.802344
0.802344
0.802343
0.802341
0.80234
0.802338
0.802337
0.802335
0.802333
0.802331
0.802328
0.802326
0.802323
0.80232
0.802317
0.802316
0.802312
0.802284
0.802263
0.801953
0.00156958
0.00439133
0.0149555
0.043694
0.102943
0.198091
0.336374
0.502612
0.61405
0.662413
0.688831
0.723014
0.780487
0.864286
0.953516
1.01347
1.04196
1.04678
1.03316
0.997903
0.938018
0.861776
0.782478
0.710954
0.650943
0.602454
0.563323
0.533323
0.513387
0.502728
0.496963
0.491223
0.482161
0.470793
0.45954
0.44795
0.435244
0.423179
0.415249
0.412814
0.412605
0.408456
0.398295
0.385771
0.376965
0.374171
0.37433
0.371401
0.362771
0.351159
0.341007
0.333078
0.326146
0.320743
0.319743
0.325274
0.335517
0.344249
0.348618
0.352093
0.360836
0.375641
0.391126
0.40392
0.417883
0.442055
0.482677
0.541809
0.614396
0.692341
0.766755
0.828447
0.876507
0.915052
0.946056
0.970511
1.0011
1.0245
1.03791
1.05884
1.14951
1.24169
1.2573
1.19329
0.972878
0.735074
0.462449
0.262973
0.169218
0.123686
0.110634
0.115766
0.136464
0.167304
0.206582
0.251954
0.301601
0.35029
0.415761
0.477277
0.496528
0.51745
0.524632
0.445496
0.346895
0.256486
0.194959
0.146851
0.120483
0.110084
0.104157
0.102068
0.103723
0.109384
0.119617
0.131431
0.150095
0.15982
0.149765
0.143244
0.139312
0.130012
0.124269
0.115381
0.109454
0.102917
0.0993963
0.0986184
0.0988863
0.0983409
0.0982124
0.0985126
0.0985935
0.0988741
0.0994109
0.10015
0.100584
0.100939
0.101152
0.101081
0.100715
0.100225
0.0999825
0.0995699
0.0986113
0.0973291
0.0965312
0.0961208
0.0955208
0.0942288
0.092309
0.0907644
0.0897012
0.088759
0.0875382
0.0859416
0.084144
0.0828157
0.0816428
0.0800213
0.0781932
0.0766368
0.0754112
0.0739629
0.0720963
0.0704081
0.0691906
0.0680209
0.0664068
0.0646394
0.0632038
0.0621321
0.0611059
0.0598493
0.0583341
0.0569763
0.0559389
0.0550193
0.054009
0.05294
0.0518787
0.0509571
0.0501245
0.0491577
0.04803
0.0470804
0.0464168
0.0458082
0.045146
0.0444145
0.0436763
0.0430179
0.0424167
0.0418524
0.0413122
0.0408046
0.0402885
0.0397341
0.0391575
0.0386975
0.038401
0.0381688
0.0378413
0.037397
0.0369104
0.0365116
0.0362555
0.0360646
0.035824
0.0355154
0.0352175
0.0349987
0.0348056
0.0345615
0.034261
0.0340035
0.0338506
0.0337697
0.0336801
0.0335027
0.033211
0.0329099
0.0327268
0.0326589
0.0326171
0.0325373
0.0323985
0.0322051
0.0320082
0.0318932
0.0318812
0.0319017
0.0318686
0.0317501
0.0316143
0.031587
0.0316819
0.0317983
0.0318589
0.0318835
0.0319189
0.0319843
0.0320663
0.032158
0.0322447
0.0323337
0.0325172
0.0327357
0.032839
0.0328793
0.032988
0.0331661
0.0333396
0.0334582
0.0335965
0.0337508
0.0338309
0.0338663
0.0339535
0.0340825
0.0341759
0.0341814
0.0341757
0.0342393
0.0343599
0.0344733
0.0345395
0.0344904
0.0343379
0.034224
0.0342269
0.0343167
0.034416
0.0344325
0.0343525
0.0342229
0.0341246
0.0340913
0.0340607
0.0339686
0.0339149
0.033961
0.0339407
0.0337968
0.033595
0.0334249
0.0333424
0.033334
0.0333198
0.0332458
0.0330798
0.0328585
0.0327034
0.0326514
0.032616
0.0325295
0.0323958
0.0322349
0.0320877
0.0319771
0.0318808
0.0317607
0.0315897
0.0314171
0.0312797
0.0311524
0.0309788
0.0307419
0.0305616
0.0304317
0.03029
0.0301018
0.0298767
0.029664
0.0294813
0.0293071
0.029101
0.0288739
0.0286738
0.0284969
0.0283164
0.0280918
0.0278408
0.0276529
0.027497
0.0273059
0.0270599
0.0268433
0.0266846
0.0265371
0.0263806
0.0262021
0.0260045
0.0258139
0.0256438
0.0254959
0.0253692
0.0252515
0.0251218
0.0249796
0.0248738
0.0248139
0.0247698
0.0247216
0.0246484
0.0245583
0.0245016
0.0244799
0.0244637
0.0244041
0.0243186
0.0242788
0.0242651
0.0242419
0.0241871
0.0241214
0.0240941
0.0240743
0.0240259
0.0239582
0.0239125
0.0238809
0.0238432
0.0238007
0.0237371
0.0236745
0.0236352
0.0235983
0.0235548
0.0235011
0.0234236
0.0233437
0.0232798
0.0232219
0.0231493
0.0230736
0.0230139
0.0229575
0.0228993
0.0228271
0.0227332
0.0226408
0.0225657
0.0225017
0.0224424
0.0223706
0.0222916
0.0222027
0.0221108
0.0220463
0.0219731
0.021863
0.0217552
0.0217018
0.0216215
0.0215221
0.0214494
0.0213748
0.0212823
0.0211753
0.0210751
0.0209735
0.0208943
0.0208147
0.0207419
0.0206515
0.0205754
0.0204559
0.020383
0.0203043
0.0202271
0.0201332
0.0200157
0.0199512
0.0198221
0.0197241
0.0196231
0.0194456
0.0193059
0.0193982
0.0191733
0.01917
0.0190337
0.0182005
0.0181573
0.0191441
0.0185653
0.0202967
0.0225633
0.0275911
0.0281921
0.0234945
0.0223005
0.0206323
0.0200401
0.0195129
0.01938
0.0191033
0.0188946
0.0185557
0.0184194
0.0174128
0.0173735
0.0184751
0.017716
0.0190998
0.0207961
0.0239403
0.0238322
0.0205409
0.0201224
0.0189656
0.0186086
0.0182621
0.0180031
0.0175632
0.0173765
0.0170131
0.0170024
0.0166468
0.0168393
0.0166573
0.0168091
0.016969
0.0178577
0.0220147
0.0341075
0.0449763
0.0686521
0.0652964
0.0501328
0.0398134
0.0326209
0.0283869
0.0256533
0.0239146
0.0227123
0.0218316
0.0211752
0.0206664
0.0202468
0.0199024
0.019636
0.0194369
0.019279
0.0191345
0.0189907
0.0188511
0.0187283
0.0186259
0.0185437
0.0184709
0.0184041
0.0183352
0.018245
0.0181762
0.0181009
0.0180124
0.0179186
0.0178169
0.0177105
0.0176098
0.0175222
0.0174463
0.0173806
0.0173323
0.0173013
0.0172526
0.0172205
0.017199
0.0171836
0.0171749
0.0171697
0.0171615
0.0171453
0.017119
0.0170785
0.0170297
0.0169761
0.0169221
0.0168751
0.0168469
0.0168447
0.0168592
0.0168631
0.0168324
0.0167668
0.0167156
0.0167286
0.0167999
0.016882
0.0168864
0.016777
0.0166912
0.0167225
0.0168065
0.01681
0.0166668
0.016552
0.0165624
0.0165899
0.0165286
0.0164488
0.0164837
0.0165804
0.0165531
0.0163733
0.0164304
0.0155067
0.0110452
0.00119415
0.00221512
0.00641231
0.0185703
0.044943
0.0895151
0.150549
0.208158
0.245661
0.277809
0.325819
0.399543
0.501386
0.612969
0.711729
0.7752
0.792456
0.77068
0.719247
0.648027
0.570916
0.49933
0.438573
0.388442
0.347969
0.315971
0.290502
0.269893
0.254885
0.246192
0.242082
0.239335
0.234733
0.226594
0.216852
0.207328
0.198233
0.189774
0.183619
0.180428
0.178671
0.175308
0.169496
0.162002
0.156253
0.154026
0.153718
0.151895
0.147464
0.140413
0.133117
0.126837
0.121179
0.116736
0.115287
0.117665
0.121634
0.125112
0.128245
0.133135
0.14208
0.152547
0.160071
0.164131
0.166611
0.172283
0.184973
0.203049
0.223103
0.243365
0.261298
0.276682
0.289201
0.298698
0.308267
0.329003
0.374507
0.465899
0.587915
0.691471
0.785196
0.844651
0.851395
0.819923
0.736562
0.625491
0.517332
0.406748
0.287424
0.184434
0.0949565
0.052457
0.0346729
0.031325
0.0352864
0.0428194
0.049598
0.0542042
0.0617772
0.0803017
0.0895869
0.100352
0.111937
0.10709
0.101513
0.0969821
0.078416
0.0557667
0.0384133
0.0277694
0.0215007
0.0173119
0.0152421
0.0144278
0.0148142
0.0159325
0.0182712
0.0202861
0.0198316
0.0200414
0.0204281
0.0195338
0.0193115
0.0186224
0.0167347
0.0151294
0.0137272
0.0132132
0.012763
0.0123307
0.0121981
0.0122654
0.0122408
0.0122861
0.012401
0.0125532
0.0126208
0.0126731
0.012689
0.0126297
0.0125446
0.0124457
0.0123619
0.0122248
0.0119999
0.0117481
0.0115839
0.011468
0.0112979
0.0110149
0.0106709
0.010395
0.0101864
0.0099818
0.00971131
0.00940931
0.00910646
0.00886971
0.0086473
0.00836516
0.00805331
0.00778143
0.0075628
0.00732345
0.00703173
0.00676577
0.00656794
0.00637867
0.00614279
0.00588977
0.00567986
0.00552021
0.00536877
0.00519693
0.00500418
0.00482826
0.00468708
0.00456234
0.00443226
0.00430602
0.00418747
0.00407922
0.00397537
0.00386197
0.00374119
0.00363781
0.00355875
0.0034904
0.00342335
0.00335182
0.0032783
0.00320902
0.00314205
0.0030798
0.00302481
0.00297745
0.0029318
0.00288072
0.00282528
0.00277888
0.00274733
0.00272288
0.00269212
0.0026521
0.00261046
0.00257641
0.00255252
0.00253279
0.00250989
0.00248303
0.00245749
0.00243663
0.00241761
0.00239625
0.00237206
0.00235043
0.00233561
0.0023256
0.00231542
0.00230053
0.00227889
0.00225606
0.00223918
0.00222872
0.0022211
0.00221324
0.00220245
0.00218741
0.00217119
0.0021598
0.00215534
0.00215419
0.00215068
0.00214092
0.00212928
0.00212544
0.00213047
0.00213795
0.00214259
0.00214417
0.00214501
0.00214786
0.00215354
0.00215986
0.00216521
0.00217164
0.00218539
0.0022022
0.00221173
0.00221636
0.0022247
0.00223771
0.00225139
0.00226176
0.00227251
0.00228432
0.00229245
0.00229918
0.00230896
0.00231866
0.00232342
0.00232282
0.00232432
0.00233121
0.00234147
0.00235103
0.00235555
0.00235102
0.00234027
0.0023332
0.00233445
0.00234037
0.00234544
0.00234579
0.00234181
0.00233478
0.00232752
0.00232233
0.00231783
0.0023114
0.00230775
0.00231057
0.00230844
0.00229711
0.00228245
0.0022709
0.00226458
0.00226187
0.00225868
0.00225212
0.00224021
0.00222538
0.00221441
0.00220902
0.00220379
0.00219569
0.00218606
0.0021757
0.00216519
0.00215527
0.00214603
0.00213605
0.00212421
0.00211235
0.00210097
0.00208952
0.0020765
0.00206047
0.00204747
0.00203656
0.00202447
0.00201024
0.00199477
0.00197942
0.00196513
0.00195134
0.00193642
0.00192093
0.0019064
0.00189251
0.00187839
0.00186278
0.00184671
0.00183371
0.00182137
0.00180727
0.00179141
0.00177744
0.00176619
0.00175542
0.00174413
0.00173222
0.00172017
0.0017087
0.00169819
0.0016888
0.00168075
0.00167348
0.00166616
0.00165881
0.001653
0.0016492
0.00164658
0.00164395
0.0016406
0.00163714
0.00163522
0.00163447
0.00163372
0.00163151
0.00162853
0.00162724
0.00162668
0.00162577
0.00162393
0.00162168
0.0016205
0.00161939
0.00161769
0.00161578
0.00161446
0.00161273
0.00161065
0.00160902
0.0016067
0.00160443
0.00160273
0.00160068
0.0015986
0.00159628
0.00159294
0.00158943
0.00158637
0.00158372
0.00158061
0.00157729
0.00157423
0.00157099
0.00156801
0.00156478
0.00156073
0.00155648
0.00155283
0.00154973
0.00154674
0.00154284
0.00153884
0.00153475
0.00153048
0.00152694
0.00152301
0.00151819
0.0015136
0.00151059
0.00150628
0.00150159
0.0014977
0.00149378
0.00148957
0.00148476
0.00148016
0.00147543
0.00147148
0.00146728
0.0014635
0.00145904
0.00145582
0.00145038
0.0014467
0.00144353
0.00143987
0.00143456
0.00142826
0.00142474
0.00141787
0.00141358
0.00141192
0.00140505
0.00140048
0.00140299
0.00138376
0.00138899
0.0014057
0.00140798
0.00143498
0.00147008
0.00150522
0.00155944
0.0015718
0.00170538
0.00167767
0.00152886
0.00148351
0.00144046
0.00141512
0.00140308
0.00139651
0.0013885
0.00136561
0.0013606
0.00138276
0.00137232
0.00139209
0.00141975
0.00144167
0.00146887
0.00146238
0.00152189
0.0014926
0.00141684
0.00139651
0.00136825
0.00135021
0.00134412
0.0013348
0.00132486
0.00133253
0.00132787
0.00135017
0.00135209
0.00141693
0.0014688
0.00165222
0.00177128
0.00189684
0.0024082
0.00311923
0.00357627
0.00504323
0.00405014
0.00291356
0.00234295
0.00199408
0.00179994
0.00168112
0.0016038
0.00154855
0.00150758
0.00147692
0.00145315
0.00143392
0.00141852
0.00140638
0.00139649
0.00138787
0.00137994
0.00137257
0.00136634
0.00136117
0.00135715
0.00135411
0.00135139
0.00134865
0.00134561
0.00134234
0.00133878
0.00133512
0.00133162
0.00132816
0.00132461
0.0013211
0.00131791
0.0013151
0.00131244
0.00130978
0.00130726
0.0013051
0.00130355
0.00130225
0.00130141
0.00130092
0.00130053
0.0013
0.00129917
0.00129805
0.00129682
0.00129548
0.00129397
0.00129216
0.0012901
0.00128821
0.00128703
0.0012869
0.00128758
0.00128813
0.00128771
0.00128658
0.00128619
0.00128706
0.00128898
0.00129014
0.00128862
0.00128632
0.00128597
0.00128749
0.00128832
0.00128639
0.00128343
0.00128316
0.00128389
0.00128299
0.00128118
0.00128162
0.00128303
0.00128479
0.00129069
0.00130354
0.00133323
0.00132181
0.00118551
0.00112696
0.00162851
0.00366706
0.00957877
0.0224357
0.0443283
0.0746646
0.10431
0.126665
0.149679
0.183315
0.230562
0.287534
0.344132
0.391758
0.423551
0.428428
0.407471
0.368571
0.321795
0.276211
0.23675
0.204631
0.17889
0.158841
0.143655
0.131938
0.122396
0.11463
0.109413
0.106792
0.105122
0.102804
0.0988908
0.0937531
0.0885911
0.083907
0.0798233
0.076565
0.0742274
0.0723535
0.0702071
0.0677913
0.0651671
0.0627951
0.06137
0.0604752
0.0591995
0.0575909
0.0552052
0.0521072
0.0488813
0.0459086
0.0434436
0.0421046
0.0421125
0.0426901
0.0436151
0.0450941
0.0479258
0.0524562
0.0573505
0.0612434
0.0641296
0.0666538
0.0699162
0.0743655
0.0802422
0.0884656
0.0995374
0.111686
0.122642
0.131286
0.137675
0.143403
0.150928
0.163487
0.189094
0.246305
0.31359
0.384677
0.450571
0.490148
0.504487
0.483873
0.439524
0.393481
0.350342
0.311839
0.272076
0.233775
0.178279
0.122831
0.068138
0.036517
0.0219864
0.0159308
0.0137924
0.0133519
0.0133698
0.0131647
0.0142797
0.0186868
0.0217209
0.0255222
0.0305172
0.0324923
0.0339852
0.0362066
0.0369547
0.0286887
0.019465
0.0121423
0.00802912
0.00573813
0.00460211
0.00403541
0.00379481
0.00370219
0.00384904
0.0040836
0.00423499
0.00455312
0.00487282
0.00488335
0.00514706
0.00506309
0.0043892
0.00384804
0.00336425
0.00314424
0.00297423
0.00286092
0.00283193
0.00283943
0.00286169
0.00285825
0.00286191
0.00286477
0.00284679
0.00282649
0.00280861
0.0027888
0.00276401
0.00272776
0.00268597
0.00265407
0.00262787
0.00259293
0.00254625
0.00249764
0.00245698
0.00241935
0.00238034
0.00233506
0.00228979
0.0022458
0.00220779
0.00217204
0.00213268
0.00208984
0.00204826
0.00201159
0.00197645
0.00193918
0.00190391
0.00187356
0.00184469
0.00181491
0.00178393
0.00175544
0.0017324
0.00171217
0.00169141
0.0016695
0.00164842
0.00163
0.00161455
0.00160031
0.00158615
0.00157216
0.00155914
0.00154731
0.00153613
0.00152515
0.00151458
0.00150499
0.00149656
0.00148896
0.00148183
0.0014751
0.00146846
0.00146133
0.00145395
0.00144743
0.00144246
0.00143847
0.00143407
0.00142838
0.00142219
0.00141731
0.00141411
0.001411
0.00140635
0.00140028
0.00139442
0.00138989
0.00138664
0.00138354
0.00137918
0.00137346
0.00136779
0.00136364
0.00136033
0.00135581
0.0013501
0.00134449
0.00133937
0.00133465
0.00133056
0.00132652
0.0013214
0.00131504
0.0013084
0.00130282
0.00129894
0.00129572
0.00129154
0.00128594
0.0012799
0.00127451
0.00127045
0.00126724
0.00126311
0.00125843
0.00125474
0.00125199
0.0012489
0.00124508
0.00124159
0.00123909
0.00123738
0.00123606
0.00123406
0.00123135
0.00122888
0.0012273
0.00122663
0.00122617
0.00122545
0.0012247
0.00122385
0.00122291
0.00122184
0.00122118
0.00122155
0.0012216
0.00122072
0.00121974
0.00121917
0.00121868
0.00121777
0.001217
0.00121621
0.00121553
0.00121541
0.00121477
0.00121335
0.00121193
0.00121084
0.00120983
0.00120839
0.00120666
0.00120505
0.00120404
0.0012032
0.00120174
0.00119966
0.00119765
0.001196
0.00119437
0.0011927
0.0011911
0.00118938
0.0011872
0.00118503
0.00118289
0.00118054
0.00117865
0.00117711
0.00117511
0.00117278
0.00117057
0.00116826
0.00116589
0.00116387
0.00116188
0.00115972
0.00115743
0.00115513
0.00115293
0.00115073
0.00114838
0.00114586
0.00114348
0.00114128
0.00113898
0.00113637
0.0011338
0.00113153
0.00112926
0.00112687
0.0011243
0.00112162
0.00111919
0.00111687
0.00111441
0.00111183
0.00110937
0.00110702
0.00110458
0.00110217
0.00109989
0.00109762
0.0010954
0.00109316
0.00109088
0.00108882
0.00108692
0.00108502
0.00108312
0.00108131
0.00107964
0.00107803
0.0010765
0.0010751
0.00107392
0.00107285
0.00107186
0.00107095
0.00107013
0.00106943
0.00106885
0.00106835
0.00106793
0.00106761
0.00106746
0.00106738
0.00106725
0.00106713
0.00106693
0.00106667
0.00106658
0.0010666
0.00106662
0.00106653
0.00106634
0.00106615
0.00106607
0.00106608
0.00106606
0.00106591
0.00106565
0.00106552
0.00106547
0.00106535
0.00106509
0.00106479
0.00106462
0.00106446
0.00106423
0.00106394
0.00106358
0.00106326
0.00106301
0.00106272
0.0010623
0.00106186
0.00106152
0.00106118
0.00106079
0.00106032
0.00105986
0.00105943
0.00105897
0.00105847
0.00105797
0.00105749
0.001057
0.00105644
0.00105585
0.00105532
0.00105482
0.00105427
0.00105373
0.00105318
0.00105255
0.00105196
0.00105141
0.00105086
0.00105029
0.00104967
0.00104907
0.00104844
0.00104786
0.00104734
0.00104681
0.001046
0.00104527
0.00104461
0.00104401
0.00104359
0.001044
0.00104351
0.00104329
0.00104235
0.0010457
0.00104577
0.00105212
0.00105841
0.00107987
0.00107971
0.00106114
0.00105787
0.00105488
0.00105203
0.00104529
0.00104495
0.00104206
0.00104307
0.00104325
0.00103958
0.00103881
0.00104399
0.00104351
0.00104559
0.00104929
0.00105538
0.00106581
0.00106364
0.0010493
0.0010475
0.0010439
0.00104094
0.00103449
0.00103323
0.00103483
0.00103369
0.00103418
0.00103267
0.00103489
0.00103431
0.00105513
0.0010425
0.00103465
0.00107827
0.00109338
0.00117248
0.00122196
0.00137955
0.00135207
0.00120466
0.00120504
0.0011942
0.00117036
0.00116928
0.00117543
0.00114453
0.00118325
0.00114792
0.00110905
0.00108564
0.00107047
0.00106014
0.00105255
0.00104683
0.00104244
0.00103899
0.00103619
0.00103392
0.00103208
0.0010306
0.00102938
0.00102836
0.00102751
0.00102677
0.00102615
0.00102565
0.0010252
0.00102485
0.00102471
0.00102455
0.00102437
0.00102422
0.00102407
0.0010239
0.00102372
0.00102356
0.00102341
0.00102327
0.00102314
0.00102302
0.0010229
0.00102279
0.0010227
0.00102262
0.00102255
0.00102245
0.00102237
0.00102229
0.00102222
0.00102216
0.00102211
0.00102204
0.00102197
0.00102187
0.00102176
0.00102166
0.00102158
0.00102151
0.00102142
0.00102133
0.00102123
0.00102114
0.00102104
0.00102094
0.00102084
0.00102079
0.0010208
0.00102083
0.00102083
0.00102072
0.00102059
0.00102057
0.00102064
0.00102065
0.00102047
0.00102026
0.00102021
0.00102019
0.00102009
0.00102002
0.00102007
0.00102028
0.00102285
0.00103264
0.00105475
0.00109113
0.00110373
0.00104654
0.00109583
0.00136416
0.00245388
0.00563764
0.0125829
0.0244788
0.0411763
0.0574807
0.0686333
0.0786118
0.0934055
0.112494
0.132665
0.149969
0.162801
0.170778
0.172523
0.164944
0.150326
0.13281
0.115798
0.100972
0.0887082
0.078723
0.0708444
0.0648134
0.0600859
0.0560567
0.0525559
0.0498412
0.0481585
0.0470846
0.0457785
0.0439689
0.0416802
0.0394331
0.0374583
0.0358061
0.0344265
0.0331973
0.0320209
0.0308623
0.0298776
0.0290839
0.0281986
0.0271788
0.0262876
0.0255681
0.0250641
0.0244648
0.0233807
0.0218995
0.0204165
0.0191727
0.0183195
0.0178382
0.0176237
0.0177053
0.0181562
0.0192483
0.0210283
0.0230371
0.0249759
0.0268819
0.0286963
0.0304352
0.0323238
0.0349017
0.0389562
0.0447728
0.0515819
0.0579035
0.0629307
0.0670788
0.0712303
0.076092
0.081857
0.0890451
0.10161
0.119987
0.143805
0.177899
0.205787
0.22856
0.243
0.244233
0.239966
0.231647
0.219987
0.205516
0.195073
0.182242
0.163136
0.142433
0.112804
0.082196
0.0499698
0.0289454
0.0174047
0.0112952
0.00822057
0.00674274
0.00610748
0.00610381
0.0070808
0.00949816
0.0122761
0.0150543
0.0198401
0.0251488
0.027722
0.030689
0.0314849
0.0241861
0.0161717
0.00987754
0.00631068
0.00427062
0.0032004
0.00261084
0.00235734
0.00233227
0.00243225
0.0025626
0.00270346
0.0028816
0.00313088
0.00329375
0.00361878
0.00359193
0.00305653
0.00265546
0.00228802
0.00207572
0.00195826
0.00190597
0.0018749
0.00185062
0.00182996
0.00179993
0.00178686
0.00178295
0.00177646
0.0017691
0.00176144
0.00174822
0.00173686
0.00172788
0.00171948
0.00171066
0.00170091
0.00168956
0.00167797
0.00166707
0.0016587
0.00165063
0.00164043
0.00162822
0.00161705
0.00160811
0.00159936
0.00158911
0.00157781
0.00156773
0.00155902
0.0015495
0.0015389
0.0015293
0.00152141
0.00151397
0.00150558
0.00149685
0.00148957
0.00148329
0.00147682
0.00147048
0.00146467
0.00145926
0.0014542
0.0014488
0.00144323
0.00143865
0.00143519
0.00143209
0.00142858
0.00142431
0.00141973
0.00141522
0.00141153
0.00140917
0.00140712
0.0014047
0.00140193
0.00139834
0.00139436
0.00139119
0.00138903
0.00138729
0.00138499
0.00138154
0.00137794
0.00137523
0.00137313
0.00137046
0.00136653
0.00136244
0.0013594
0.00135708
0.00135424
0.0013501
0.00134506
0.00134054
0.00133772
0.00133552
0.00133189
0.00132669
0.00132099
0.0013156
0.00131128
0.00130823
0.00130495
0.00129994
0.00129357
0.00128741
0.00128245
0.00127844
0.0012746
0.00127046
0.00126599
0.00126088
0.00125516
0.0012499
0.00124586
0.00124263
0.00123911
0.00123487
0.00123072
0.00122703
0.00122333
0.00121996
0.0012177
0.00121544
0.00121244
0.00120941
0.00120666
0.00120399
0.00120152
0.00120028
0.00119969
0.00119836
0.00119637
0.00119448
0.00119313
0.00119182
0.00119021
0.00118929
0.00118875
0.00118749
0.00118585
0.00118504
0.0011848
0.00118392
0.00118254
0.0011809
0.00117934
0.00117863
0.00117801
0.0011769
0.00117586
0.00117468
0.0011731
0.00117133
0.00116995
0.00116869
0.00116726
0.00116603
0.00116492
0.0011634
0.0011615
0.00115971
0.00115807
0.00115634
0.00115493
0.00115367
0.00115195
0.00114973
0.0011477
0.00114605
0.00114449
0.00114288
0.00114097
0.00113904
0.00113727
0.00113536
0.00113341
0.00113168
0.00112977
0.00112782
0.00112599
0.00112413
0.00112229
0.00112043
0.00111843
0.00111643
0.00111456
0.00111282
0.00111094
0.00110893
0.00110686
0.00110497
0.00110318
0.00110124
0.00109922
0.00109724
0.00109537
0.0010935
0.00109153
0.00108955
0.00108768
0.00108588
0.00108405
0.00108216
0.0010803
0.0010785
0.0010768
0.00107512
0.00107341
0.00107178
0.00107026
0.00106878
0.00106735
0.00106598
0.00106464
0.00106343
0.00106237
0.0010613
0.00106029
0.00105941
0.0010586
0.00105789
0.00105728
0.00105676
0.00105627
0.00105584
0.00105551
0.00105522
0.00105501
0.00105486
0.00105473
0.00105462
0.0010545
0.00105435
0.00105424
0.00105419
0.00105419
0.00105415
0.00105407
0.00105396
0.00105383
0.00105377
0.00105375
0.00105371
0.00105359
0.00105345
0.00105336
0.00105324
0.0010531
0.00105296
0.00105278
0.00105259
0.00105244
0.00105227
0.00105205
0.00105178
0.00105154
0.0010513
0.00105105
0.00105076
0.00105047
0.00105014
0.00104982
0.00104949
0.00104915
0.00104877
0.0010484
0.00104805
0.00104765
0.00104725
0.00104682
0.0010464
0.00104596
0.00104556
0.00104511
0.00104467
0.00104425
0.00104383
0.00104338
0.0010429
0.0010424
0.00104194
0.0010415
0.00104105
0.00104064
0.00104015
0.00103959
0.00103895
0.00103848
0.00103791
0.00103958
0.00103878
0.00103775
0.00103789
0.0010372
0.0010398
0.00104033
0.00104696
0.00105403
0.00107658
0.00107633
0.00105631
0.00105283
0.0010483
0.00104374
0.00103567
0.00103398
0.00103208
0.00103159
0.00103191
0.00103136
0.0010312
0.00103798
0.0010385
0.00104441
0.00104835
0.00106391
0.00106194
0.00105006
0.00104401
0.00104052
0.00103856
0.00103404
0.0010272
0.00102531
0.00102775
0.00102576
0.00102738
0.00102618
0.00102667
0.00102783
0.00105047
0.00104533
0.00107303
0.00108113
0.00114638
0.00118612
0.00126863
0.00140012
0.00136951
0.00120829
0.00120101
0.00117797
0.00113754
0.00110031
0.00107321
0.00104243
0.00103872
0.00104671
0.00104961
0.00105057
0.00104983
0.00104702
0.00104387
0.00104095
0.00103821
0.00103561
0.00103316
0.00103097
0.00102908
0.00102746
0.00102603
0.00102481
0.00102378
0.00102295
0.00102229
0.00102175
0.00102121
0.00102067
0.0010202
0.00101984
0.0010195
0.00101924
0.0010191
0.00101898
0.00101886
0.00101877
0.00101868
0.00101857
0.00101844
0.00101832
0.00101822
0.00101813
0.00101805
0.001018
0.00101795
0.00101791
0.00101788
0.00101782
0.00101776
0.00101768
0.00101761
0.00101755
0.00101751
0.00101748
0.00101745
0.00101739
0.00101731
0.00101723
0.00101718
0.00101716
0.00101714
0.00101707
0.00101694
0.0010168
0.00101667
0.00101657
0.00101649
0.00101644
0.00101639
0.00101637
0.00101634
0.00101628
0.00101621
0.00101619
0.00101624
0.00101627
0.00101614
0.00101591
0.00101581
0.00101581
0.00101578
0.00101565
0.00101562
0.00101563
0.00101584
0.00101843
0.00102833
0.00105086
0.00108754
0.00110075
0.00104438
0.00108375
0.00126061
0.00196949
0.00404902
0.00859267
0.0164067
0.0274038
0.0379823
0.0447146
0.0498159
0.0565103
0.0642278
0.0704224
0.0733802
0.0736041
0.0719561
0.0690151
0.0648316
0.0594457
0.0536852
0.0482513
0.0434767
0.0394491
0.0360653
0.0332342
0.0309351
0.0290439
0.027339
0.0258342
0.024645
0.0238116
0.0231486
0.0224363
0.0215824
0.020589
0.0196486
0.0188891
0.0183043
0.0178166
0.0172796
0.0167572
0.016366
0.0161299
0.0159317
0.0155255
0.0148582
0.0142025
0.0138414
0.0137356
0.0136874
0.0134115
0.0128118
0.0120547
0.0113518
0.0107798
0.0103319
0.0100415
0.00995751
0.010081
0.0104155
0.0109993
0.0117826
0.0127611
0.0139278
0.0150024
0.0158247
0.0165967
0.0176165
0.0191845
0.0215392
0.0246256
0.0279544
0.0308145
0.0328376
0.0346417
0.0371287
0.0402472
0.043734
0.0482232
0.0540957
0.0611104
0.0705499
0.0813005
0.0924077
0.104517
0.114042
0.121445
0.127897
0.1341
0.137361
0.138897
0.137027
0.131571
0.127283
0.120752
0.109577
0.0966307
0.0778399
0.0584443
0.0374888
0.0230597
0.0143869
0.00947154
0.00693832
0.00580236
0.00543123
0.00571083
0.0066511
0.00839485
0.0122589
0.0165563
0.0220175
0.0264946
0.0281735
0.0302135
0.0299654
0.0224861
0.0147813
0.00891495
0.00565994
0.0038385
0.00290695
0.00242135
0.00225024
0.00225771
0.00233977
0.00244767
0.00259928
0.00277175
0.00302689
0.00322337
0.00355238
0.00351243
0.00300433
0.00260064
0.00235491
0.00208967
0.00192678
0.00183261
0.00177672
0.00174092
0.00171463
0.00168499
0.00167516
0.00167568
0.00167091
0.00165956
0.00164922
0.00164077