/*--------------------------------*- C++ -*----------------------------------*\
| =========                 |                                                 |
| \\      /  F ield         | OpenFOAM: The Open Source CFD Toolbox           |
|  \\    /   O peration     | Version:  v2006                                 |
|   \\  /    A nd           | Website:  www.openfoam.com                      |
|    \\/     M anipulation  |                                                 |
\*---------------------------------------------------------------------------*/
FoamFile
{
    version     2.0;
    format      ascii;
    class       volScalarField;
    location    "4.8";
    object      p;
}
// * * * * * * * * * * * * * * * * * * * * * * * * * * * * * * * * * * * * * //

dimensions      [1 -1 -2 0 0 0 0];


internalField   nonuniform List<scalar> 
33000
(
8841.98
8839.67
8837.17
8834.02
8830.67
8827.38
8824.34
8821.45
8818.64
8815.64
8812.31
8808.29
8802.89
8796.93
8791.74
8788.58
8786.27
8784.06
8781.26
8777.91
8774.56
8771.05
8767.47
8763.88
8760.27
8756.63
8752.98
8749.31
8745.57
8741.9
8738.18
8734.43
8730.61
8726.79
8722.99
8719.17
8715.31
8711.37
8707.45
8703.5
8699.52
8695.51
8691.46
8687.34
8683.25
8679.11
8674.93
8670.7
8666.43
8662.14
8657.81
8653.46
8649.05
8644.59
8640.1
8635.58
8631.04
8626.5
8621.96
8617.31
8612.69
8608.08
8603.44
8598.79
8594.14
8589.5
8584.87
8580.31
8575.81
8571.44
8567.23
8563.2
8559.5
8556.18
8553.4
8551.5
8551.1
8549.56
8533.63
8502.37
8515.03
8507.33
8496.18
8490.54
8481.89
8471.13
8464.69
8457.41
8449.35
8441.15
8433.37
8425.31
8417.14
8409.58
8402.29
8395.02
8389.6
8382.7
8382.38
8372.11
8351.74
8339.93
8327.02
8313.88
8301.54
8287.57
8272.62
8257.51
8242.61
8227.85
8212.49
8197.19
8181.61
8165.81
8150.46
8134.46
8122.27
8104.16
8079.19
8059.76
8038.65
8016.76
7995.38
7972.88
7949.4
7926
7902.32
7878.48
7854.59
7830.59
7806.5
7782.46
7758.53
7734.77
7711.23
7687.95
7664.98
7642.34
7620.07
7598.23
7576.84
7555.93
7535.54
7515.7
7496.45
7477.8
7459.77
7442.37
7425.64
7409.59
7394.22
7379.52
7365.48
7352.11
7339.4
7327.33
7315.89
7305.03
7294.75
7285.03
7275.81
7267.07
7258.78
7250.92
7243.44
7236.31
7229.5
7222.98
7216.74
7210.81
7205.22
7199.99
7195.16
7190.73
7186.74
7183.17
7180.05
7177.39
7175.19
7173.46
7172.19
7171.39
7171.06
7171.2
7171.79
7172.83
7174.3
7176.22
7178.55
7181.31
7184.46
7188.01
7191.93
7196.21
7200.84
7205.81
7211.11
7216.71
7222.62
7228.79
7235.24
7241.93
7248.87
7256.03
7263.41
7270.98
7278.74
7286.67
7294.76
7303
7311.37
7319.86
7328.46
7337.16
7345.95
7354.82
7363.75
7372.73
7381.75
7390.8
7399.89
7409
7418.11
7427.21
7436.31
7445.38
7454.44
7463.46
7472.45
7481.39
7490.28
7499.11
7507.88
7516.59
7525.23
7533.79
7542.28
7550.68
7558.99
7567.22
7575.35
7583.4
7591.34
7599.19
7606.94
7614.59
7622.14
7629.58
7636.91
7644.14
7651.26
7658.27
7665.17
7671.96
7678.64
7685.21
7691.67
7698.02
7704.25
7710.37
7716.37
7722.25
7728.02
7733.68
7739.22
7744.64
7749.94
7755.12
7760.19
7765.15
7770
7774.72
7779.33
7783.83
7788.21
7792.48
7796.64
7800.69
7804.63
7808.47
7812.2
7815.82
7819.34
7822.76
7826.08
7829.31
7832.44
7835.48
7838.43
7841.29
7844.07
7846.76
7849.38
7851.91
7854.37
7856.76
7859.08
7861.32
7863.49
7865.58
7867.58
7869.49
7871.31
7873.04
7874.67
7876.19
7877.62
7878.94
7880.15
7881.25
7882.25
7883.14
7883.91
7884.58
7885.14
7885.6
7885.94
7886.18
7886.32
7886.35
7886.28
7886.12
7885.85
7885.5
7885.06
7884.53
7883.91
7883.22
7882.45
7881.61
7880.69
7879.72
7878.67
7877.58
7876.42
7875.21
7873.96
7872.65
7871.31
7869.93
7868.52
7867.08
7865.61
7864.12
7862.61
7861.08
7859.54
7857.99
7856.43
7854.86
7853.28
7851.71
7850.13
7848.55
7846.98
7845.42
7843.86
7842.32
7840.78
7839.25
7837.74
7836.24
7834.75
7833.28
7831.83
7830.39
7828.98
7827.58
7826.2
7824.84
7823.5
7822.17
7820.87
7819.59
7818.33
7817.08
7815.86
7814.66
7813.48
7812.32
7811.18
7810.06
7808.97
7807.89
7806.84
7805.8
7804.79
7803.79
7802.81
7801.86
7800.92
7800
7799.1
7798.22
7797.35
7796.5
7795.67
7794.85
7794.05
7793.26
7792.49
7791.73
7790.98
7790.25
7789.54
7788.83
7788.14
7787.46
7786.8
7786.14
7785.5
7784.87
7784.24
7783.63
7783.03
7782.44
7781.86
7781.28
7780.72
7780.17
7779.63
7779.09
7778.56
7778.04
7777.53
7777.04
7776.55
7776.05
7775.6
7775.06
7774.62
7774.27
7773.84
7773.44
7773
7772.58
7772.14
7771.71
7771.27
7770.84
7770.4
7769.96
7769.53
7769.1
7768.67
7768.23
7767.81
7767.36
7766.94
7766.56
7766.15
7765.75
7765.33
7764.92
7764.49
7764.09
7763.66
7763.25
7762.83
7762.42
7761.99
7761.59
7761.16
7760.77
7760.39
7759.99
7759.6
7759.28
7758.72
7758.45
7758.21
7757.93
7757.63
7757.32
7756.99
7756.66
7756.32
7755.97
7755.62
7755.27
7754.91
7754.55
7754.19
7753.82
7753.45
7753.08
7752.71
7752.33
7751.96
7751.58
7751.2
7750.83
7750.45
7750.07
7749.68
7749.3
7748.92
7748.53
7748.15
7747.76
7747.38
7746.99
7746.61
7746.22
7745.83
7745.44
7745.05
7744.66
7744.27
7743.88
7743.49
7743.1
7742.71
7742.32
7741.92
7741.53
7741.14
7740.75
7740.35
7739.96
7739.57
7739.17
7738.78
7738.38
7737.99
7737.59
7737.2
7736.8
7736.41
7736.01
7735.62
7735.22
7734.82
7734.42
7734.03
7733.63
7733.23
7732.83
7732.43
7732.03
7731.63
7731.23
7730.83
7730.42
7730.02
7729.62
7729.21
7728.81
7728.42
7727.88
8645.7
8643.37
8640.87
8637.7
8634.21
8630.88
8627.83
8624.74
8621.53
8617.77
8613.3
8608.26
8602.69
8596.43
8591.53
8588.72
8587.85
8586.68
8584.53
8581.78
8578.56
8575.01
8571.43
8567.84
8564.22
8560.56
8556.91
8553.24
8549.53
8545.81
8542.12
8538.29
8534.52
8530.75
8526.93
8523.11
8519.23
8515.32
8511.4
8507.45
8503.5
8499.46
8495.39
8491.29
8487.2
8483.05
8478.91
8474.64
8470.34
8466.07
8461.72
8457.38
8453
8448.56
8444.07
8439.54
8435.01
8430.48
8425.85
8421.2
8416.55
8411.92
8407.3
8402.61
8397.91
8393.26
8388.55
8383.92
8379.36
8374.8
8370.34
8365.98
8361.63
8357.41
8353.32
8349.04
8344.36
8339.19
8333.82
8331.42
8330.59
8314.54
8279.86
8293.57
8285.33
8276.4
8270.59
8262.85
8254.52
8243.14
8236.73
8228.46
8220.17
8212.4
8204.41
8196.4
8188.74
8181.12
8173.44
8165.02
8155.78
8153.76
8140.95
8117.09
8102.86
8087.95
8075.03
8061.08
8048.56
8033.95
8017.62
8001.45
7985.08
7968.8
7952.78
7936.26
7919.64
7902.15
7883.26
7869.18
7848.6
7820.77
7798.71
7775.87
7752.96
7730.66
7707.23
7682.9
7658.67
7634.47
7610.32
7586.36
7562.42
7538.55
7514.94
7491.56
7468.56
7445.88
7423.61
7401.73
7380.3
7359.35
7338.92
7319.05
7299.76
7281.08
7263.01
7245.6
7228.85
7212.78
7197.38
7182.65
7168.6
7155.22
7142.5
7130.43
7118.97
7108.1
7097.82
7088.08
7078.86
7070.12
7061.83
7053.96
7046.47
7039.34
7032.52
7025.99
7019.75
7013.82
7008.23
7003
6998.16
6993.73
6989.72
6986.16
6983.04
6980.38
6978.19
6976.46
6975.2
6974.42
6974.1
6974.25
6974.86
6975.91
6977.4
6979.33
6981.68
6984.45
6987.62
6991.19
6995.14
6999.44
7004.1
7009.08
7014.4
7020.02
7025.94
7032.14
7038.61
7045.33
7052.28
7059.47
7066.86
7074.46
7082.23
7090.18
7098.29
7106.55
7114.94
7123.44
7132.06
7140.78
7149.58
7158.46
7167.41
7176.41
7185.44
7194.52
7203.61
7212.73
7221.85
7230.97
7240.08
7249.16
7258.23
7267.26
7276.25
7285.2
7294.1
7302.94
7311.72
7320.43
7329.08
7337.64
7346.13
7354.54
7362.86
7371.08
7379.22
7387.27
7395.22
7403.07
7410.82
7418.47
7426.02
7433.46
7440.79
7448.02
7455.14
7462.15
7469.05
7475.85
7482.53
7489.1
7495.56
7501.91
7508.14
7514.25
7520.25
7526.14
7531.91
7537.57
7543.11
7548.53
7553.83
7559.02
7564.09
7569.05
7573.89
7578.62
7583.23
7587.73
7592.11
7596.39
7600.55
7604.6
7608.55
7612.39
7616.12
7619.74
7623.27
7626.69
7630.02
7633.25
7636.38
7639.42
7642.38
7645.24
7648.02
7650.72
7653.33
7655.87
7658.34
7660.73
7663.05
7665.3
7667.47
7669.56
7671.56
7673.48
7675.31
7677.03
7678.66
7680.19
7681.62
7682.94
7684.15
7685.26
7686.25
7687.14
7687.91
7688.58
7689.14
7689.59
7689.93
7690.17
7690.3
7690.33
7690.26
7690.09
7689.82
7689.46
7689.02
7688.48
7687.86
7687.16
7686.39
7685.54
7684.62
7683.63
7682.58
7681.47
7680.31
7679.1
7677.84
7676.53
7675.18
7673.8
7672.38
7670.94
7669.47
7667.97
7666.46
7664.92
7663.38
7661.82
7660.25
7658.68
7657.1
7655.52
7653.94
7652.36
7650.79
7649.22
7647.66
7646.11
7644.57
7643.04
7641.53
7640.03
7638.54
7637.07
7635.62
7634.18
7632.76
7631.36
7629.98
7628.62
7627.28
7625.95
7624.65
7623.37
7622.1
7620.86
7619.64
7618.44
7617.26
7616.1
7614.96
7613.84
7612.75
7611.67
7610.61
7609.58
7608.56
7607.57
7606.6
7605.64
7604.7
7603.78
7602.88
7602
7601.13
7600.29
7599.45
7598.63
7597.83
7597.04
7596.27
7595.51
7594.77
7594.04
7593.32
7592.62
7591.93
7591.25
7590.59
7589.93
7589.29
7588.66
7588.03
7587.42
7586.82
7586.23
7585.65
7585.08
7584.51
7583.96
7583.41
7582.88
7582.36
7581.85
7581.32
7580.83
7580.26
7579.78
7579.42
7578.96
7578.55
7578.12
7577.69
7577.26
7576.83
7576.39
7575.95
7575.52
7575.07
7574.64
7574.2
7573.77
7573.33
7572.9
7572.43
7572.01
7571.62
7571.2
7570.79
7570.38
7569.96
7569.55
7569.13
7568.72
7568.3
7567.88
7567.47
7567.04
7566.63
7566.18
7565.79
7565.38
7565
7564.57
7564.21
7563.59
7563.29
7563.04
7562.73
7562.42
7562.11
7561.8
7561.48
7561.15
7560.82
7560.48
7560.14
7559.79
7559.44
7559.08
7558.72
7558.36
7557.99
7557.63
7557.26
7556.89
7556.51
7556.14
7555.76
7555.39
7555.01
7554.63
7554.25
7553.87
7553.49
7553.1
7552.72
7552.34
7551.95
7551.57
7551.18
7550.79
7550.41
7550.02
7549.63
7549.24
7548.85
7548.46
7548.07
7547.68
7547.29
7546.9
7546.51
7546.12
7545.73
7545.33
7544.94
7544.55
7544.15
7543.76
7543.37
7542.97
7542.58
7542.18
7541.79
7541.39
7541
7540.6
7540.21
7539.81
7539.41
7539.02
7538.62
7538.22
7537.82
7537.42
7537.03
7536.63
7536.23
7535.83
7535.43
7535.03
7534.63
7534.22
7533.82
7533.42
7533.01
7532.62
7532.23
7531.68
8449.35
8447
8444.51
8441.33
8437.8
8434.39
8431.21
8427.87
8424.65
8421.07
8416.95
8412.15
8407.42
8402.53
8398.31
8395.2
8392.82
8390.55
8388.02
8385.28
8382.02
8378.59
8375.1
8371.57
8368
8364.39
8360.76
8357.09
8353.41
8349.72
8346.06
8342.28
8338.49
8334.71
8330.93
8327.1
8323.22
8319.35
8315.41
8311.41
8307.46
8303.47
8299.44
8295.34
8291.22
8287.04
8282.88
8278.64
8274.35
8270.06
8265.75
8261.36
8256.98
8252.55
8248.05
8243.54
8239
8234.45
8229.82
8225.19
8220.53
8215.84
8211.19
8206.39
8201.68
8196.99
8192.22
8187.48
8182.8
8178.1
8173.46
8168.83
8164.22
8159.53
8154.82
8149.96
8144.83
8139.36
8133.36
8126.5
8119.73
8113.4
8111.66
8112.15
8096.67
8057.66
8069.31
8066.86
8058.31
8049.16
8041.91
8033.68
8021.84
8015.09
8006.66
7998.37
7990.49
7981.79
7973.08
7963.78
7953
7942.82
7932.47
7922.3
7920.19
7905.91
7879.98
7863.36
7848.37
7834.4
7819.74
7806.29
7790.64
7773.59
7756.26
7738.9
7721.62
7703.6
7684.39
7664.84
7645.18
7624.7
7609.41
7587.24
7557.64
7534.2
7510.14
7486.41
7463.45
7439.43
7414.67
7390.27
7366.12
7342.18
7318.53
7295.18
7272.11
7249.3
7226.9
7204.94
7183.41
7162.38
7141.86
7121.91
7102.54
7083.78
7065.65
7048.19
7031.39
7015.28
6999.83
6985.06
6970.98
6957.57
6944.83
6932.73
6921.24
6910.36
6900.05
6890.29
6881.05
6872.29
6863.98
6856.09
6848.59
6841.43
6834.6
6828.07
6821.84
6815.92
6810.34
6805.11
6800.28
6795.85
6791.85
6788.29
6785.18
6782.53
6780.35
6778.64
6777.4
6776.64
6776.35
6776.53
6777.16
6778.24
6779.77
6781.73
6784.12
6786.92
6790.14
6793.74
6797.73
6802.08
6806.78
6811.81
6817.17
6822.83
6828.79
6835.04
6841.55
6848.31
6855.31
6862.53
6869.97
6877.6
6885.42
6893.41
6901.55
6909.84
6918.26
6926.81
6935.46
6944.21
6953.05
6961.96
6970.93
6979.96
6989.03
6998.13
7007.25
7016.39
7025.53
7034.67
7043.8
7052.91
7062
7071.04
7080.05
7089.02
7097.93
7106.79
7115.58
7124.3
7132.96
7141.54
7150.04
7158.45
7166.77
7175.01
7183.15
7191.21
7199.16
7207.02
7214.77
7222.42
7229.97
7237.41
7244.75
7251.98
7259.11
7266.12
7273.02
7279.81
7286.5
7293.07
7299.53
7305.87
7312.1
7318.22
7324.22
7330.11
7335.89
7341.54
7347.08
7352.51
7357.81
7363
7368.08
7373.04
7377.88
7382.61
7387.23
7391.74
7396.13
7400.41
7404.57
7408.63
7412.58
7416.42
7420.16
7423.79
7427.33
7430.76
7434.09
7437.32
7440.46
7443.51
7446.47
7449.34
7452.13
7454.83
7457.46
7460
7462.48
7464.88
7467.2
7469.46
7471.64
7473.73
7475.74
7477.67
7479.49
7481.23
7482.86
7484.4
7485.82
7487.15
7488.36
7489.47
7490.46
7491.34
7492.12
7492.78
7493.33
7493.78
7494.11
7494.34
7494.47
7494.49
7494.41
7494.23
7493.96
7493.59
7493.13
7492.58
7491.95
7491.24
7490.45
7489.59
7488.65
7487.65
7486.59
7485.47
7484.3
7483.07
7481.8
7480.49
7479.13
7477.74
7476.31
7474.86
7473.37
7471.87
7470.34
7468.8
7467.25
7465.68
7464.1
7462.52
7460.94
7459.35
7457.77
7456.18
7454.6
7453.03
7451.46
7449.91
7448.36
7446.83
7445.31
7443.81
7442.32
7440.84
7439.39
7437.95
7436.53
7435.12
7433.74
7432.38
7431.03
7429.71
7428.41
7427.12
7425.86
7424.62
7423.39
7422.19
7421.01
7419.85
7418.72
7417.6
7416.5
7415.43
7414.37
7413.34
7412.33
7411.33
7410.36
7409.4
7408.47
7407.55
7406.65
7405.77
7404.9
7404.05
7403.22
7402.4
7401.6
7400.81
7400.04
7399.29
7398.54
7397.81
7397.1
7396.39
7395.71
7395.03
7394.36
7393.71
7393.07
7392.43
7391.81
7391.2
7390.61
7390.01
7389.43
7388.85
7388.29
7387.75
7387.22
7386.66
7386.14
7385.54
7385.04
7384.67
7384.19
7383.76
7383.3
7382.85
7382.4
7381.97
7381.52
7381.09
7380.64
7380.21
7379.78
7379.33
7378.91
7378.45
7378.02
7377.54
7377.12
7376.72
7376.3
7375.88
7375.47
7375.04
7374.62
7374.2
7373.78
7373.38
7372.95
7372.55
7372.1
7371.7
7371.23
7370.84
7370.42
7370.03
7369.58
7369.21
7368.57
7368.25
7367.99
7367.66
7367.33
7366.99
7366.64
7366.31
7365.98
7365.65
7365.32
7364.99
7364.65
7364.3
7363.96
7363.6
7363.25
7362.89
7362.53
7362.17
7361.8
7361.43
7361.06
7360.69
7360.32
7359.94
7359.57
7359.19
7358.81
7358.43
7358.05
7357.67
7357.29
7356.91
7356.52
7356.14
7355.75
7355.37
7354.98
7354.6
7354.21
7353.82
7353.43
7353.04
7352.65
7352.26
7351.87
7351.48
7351.09
7350.7
7350.31
7349.92
7349.53
7349.13
7348.74
7348.35
7347.96
7347.56
7347.17
7346.77
7346.38
7345.99
7345.59
7345.2
7344.8
7344.41
7344.01
7343.61
7343.22
7342.82
7342.42
7342.03
7341.63
7341.23
7340.83
7340.43
7340.03
7339.63
7339.23
7338.83
7338.43
7338.03
7337.62
7337.22
7336.82
7336.42
7336.03
7335.49
8252.98
8250.61
8248.12
8244.92
8241.36
8237.9
8234.65
8231.3
8227.75
8224.14
8220.28
8216.34
8212.39
8208.46
8204.69
8201.41
8198.41
8195.43
8192.39
8189.22
8185.9
8182.49
8179.01
8175.48
8171.91
8168.33
8164.72
8161.1
8157.44
8153.75
8150.06
8146.33
8142.55
8138.79
8135.01
8131.18
8127.31
8123.46
8119.56
8115.62
8111.59
8107.59
8103.55
8099.5
8095.35
8091.16
8086.96
8082.75
8078.44
8074.18
8069.89
8065.48
8061.08
8056.67
8052.17
8047.63
8043.11
8038.53
8033.89
8029.2
8024.54
8019.85
8015.07
8010.23
8005.5
8000.73
7995.88
7991.03
7986.18
7981.32
7976.45
7971.55
7966.6
7961.57
7956.43
7951.13
7945.61
7939.8
7933.59
7927.17
7920.89
7914.19
7906.8
7898.73
7890.26
7886.48
7887.59
7885.42
7868.87
7830.31
7844.16
7836.52
7826.43
7819.15
7810.05
7797.82
7790.33
7781.16
7771.71
7762.44
7751.86
7741.77
7730.99
7717.56
7705.83
7692.38
7682.19
7671.33
7668.53
7654.21
7626.36
7609
7591.76
7575.67
7560.71
7543.38
7524.69
7505.65
7486.29
7467.04
7447.05
7425.91
7404.58
7383.32
7361.44
7345.17
7321.85
7291.05
7266.71
7242.17
7218.02
7194.71
7170.54
7145.96
7121.91
7098.2
7075.1
7052.25
7029.84
7007.77
6986.11
6964.94
6944.31
6924.23
6904.75
6885.89
6867.67
6850.11
6833.24
6817.03
6801.52
6786.69
6772.56
6759.1
6746.3
6734.15
6722.62
6711.7
6701.34
6691.54
6682.25
6673.46
6665.12
6657.19
6649.65
6642.47
6635.63
6629.1
6622.88
6616.99
6611.43
6606.23
6601.42
6597.01
6593.03
6589.49
6586.41
6583.78
6581.62
6579.95
6578.75
6578.03
6577.78
6577.99
6578.67
6579.8
6581.39
6583.41
6585.86
6588.73
6592
6595.66
6599.71
6604.12
6608.88
6613.99
6619.41
6625.14
6631.17
6637.48
6644.05
6650.88
6657.94
6665.22
6672.72
6680.41
6688.29
6696.34
6704.54
6712.88
6721.35
6729.95
6738.66
6747.46
6756.34
6765.29
6774.31
6783.38
6792.49
6801.64
6810.8
6819.98
6829.15
6838.33
6847.49
6856.63
6865.75
6874.83
6883.86
6892.85
6901.78
6910.66
6919.47
6928.21
6936.88
6945.47
6953.99
6962.41
6970.75
6979
6987.15
6995.21
7003.18
7011.03
7018.79
7026.45
7034
7041.45
7048.79
7056.03
7063.15
7070.16
7077.07
7083.86
7090.55
7097.12
7103.58
7109.93
7116.16
7122.28
7128.28
7134.17
7139.95
7145.6
7151.15
7156.58
7161.89
7167.08
7172.16
7177.13
7181.98
7186.71
7191.34
7195.85
7200.25
7204.53
7208.71
7212.78
7216.73
7220.59
7224.33
7227.98
7231.52
7234.96
7238.3
7241.54
7244.7
7247.76
7250.73
7253.61
7256.41
7259.13
7261.77
7264.33
7266.81
7269.22
7271.56
7273.82
7276.01
7278.11
7280.13
7282.06
7283.89
7285.63
7287.27
7288.81
7290.24
7291.57
7292.78
7293.89
7294.88
7295.76
7296.53
7297.19
7297.73
7298.17
7298.49
7298.71
7298.82
7298.83
7298.74
7298.54
7298.25
7297.87
7297.39
7296.83
7296.18
7295.46
7294.65
7293.77
7292.82
7291.8
7290.72
7289.58
7288.39
7287.15
7285.86
7284.53
7283.15
7281.75
7280.3
7278.83
7277.34
7275.81
7274.27
7272.72
7271.15
7269.57
7267.98
7266.39
7264.79
7263.2
7261.6
7260.01
7258.42
7256.84
7255.26
7253.7
7252.15
7250.61
7249.08
7247.57
7246.08
7244.6
7243.14
7241.7
7240.27
7238.87
7237.48
7236.11
7234.77
7233.44
7232.14
7230.85
7229.59
7228.35
7227.13
7225.93
7224.75
7223.59
7222.45
7221.34
7220.24
7219.17
7218.11
7217.08
7216.07
7215.07
7214.1
7213.15
7212.21
7211.29
7210.4
7209.51
7208.65
7207.8
7206.97
7206.15
7205.35
7204.57
7203.8
7203.04
7202.3
7201.57
7200.86
7200.15
7199.47
7198.79
7198.13
7197.48
7196.84
7196.22
7195.58
7194.98
7194.37
7193.78
7193.22
7192.65
7192.07
7191.53
7190.89
7190.37
7189.98
7189.49
7189.04
7188.56
7188.09
7187.62
7187.17
7186.71
7186.27
7185.81
7185.37
7184.93
7184.49
7184.05
7183.59
7183.16
7182.67
7182.24
7181.85
7181.42
7181
7180.58
7180.14
7179.72
7179.28
7178.87
7178.44
7178.03
7177.58
7177.18
7176.72
7176.32
7175.91
7175.5
7175.1
7174.65
7174.26
7173.6
7173.27
7173
7172.66
7172.31
7171.95
7171.59
7171.24
7170.9
7170.55
7170.21
7169.87
7169.53
7169.19
7168.84
7168.5
7168.15
7167.79
7167.44
7167.08
7166.72
7166.35
7165.99
7165.62
7165.25
7164.88
7164.5
7164.13
7163.75
7163.38
7163
7162.62
7162.24
7161.86
7161.48
7161.1
7160.71
7160.33
7159.94
7159.56
7159.17
7158.79
7158.4
7158.01
7157.62
7157.23
7156.84
7156.46
7156.07
7155.68
7155.28
7154.89
7154.5
7154.11
7153.72
7153.33
7152.94
7152.54
7152.15
7151.76
7151.36
7150.97
7150.58
7150.18
7149.79
7149.39
7149
7148.6
7148.21
7147.81
7147.41
7147.02
7146.62
7146.22
7145.83
7145.43
7145.03
7144.63
7144.23
7143.83
7143.44
7143.03
7142.63
7142.23
7141.83
7141.43
7141.03
7140.62
7140.22
7139.83
7139.29
8056.58
8054.22
8051.73
8048.52
8044.95
8041.47
8038.21
8034.82
8031.26
8027.69
8024.04
8020.46
8016.91
8013.3
8009.68
8006.22
8002.82
7999.59
7996.36
7993.07
7989.72
7986.32
7982.86
7979.34
7975.81
7972.26
7968.67
7965.08
7961.43
7957.75
7954.08
7950.37
7946.62
7942.89
7939.12
7935.28
7931.43
7927.55
7923.64
7919.7
7915.7
7911.71
7907.67
7903.58
7899.47
7895.34
7891.11
7886.92
7882.65
7878.35
7874.03
7869.66
7865.25
7860.83
7856.35
7851.8
7847.26
7842.65
7838
7833.3
7828.58
7823.85
7818.99
7814.15
7809.34
7804.47
7799.52
7794.56
7789.57
7784.54
7779.46
7774.3
7769.08
7763.79
7758.38
7752.82
7747.08
7741.09
7734.9
7728.56
7722.04
7715.28
7708.21
7701.43
7694.67
7687.91
7680.85
7673.22
7666.05
7663.76
7664.24
7647.41
7605.61
7620.52
7613.21
7601.52
7593.69
7584.01
7570.58
7561.98
7551.46
7540.46
7529.75
7517.99
7506.75
7494.87
7480.53
7468.18
7454.73
7442.79
7430.25
7427.3
7410.76
7380.85
7362.01
7343.63
7326.13
7309.33
7290.14
7269.49
7248.48
7227.45
7206.62
7185.17
7162.54
7139.95
7117.38
7094.48
7077.41
7053.3
7022.09
6997.42
6972.77
6948.79
6925.19
6902.13
6878.87
6855.37
6832.53
6810.26
6788.42
6767.1
6746.28
6726
6706.33
6687.33
6668.97
6651.29
6634.28
6617.97
6602.35
6587.43
6573.2
6559.66
6546.77
6534.54
6522.93
6511.94
6501.52
6491.64
6482.29
6473.44
6465.04
6457.07
6449.5
6442.3
6435.45
6428.94
6422.75
6416.9
6411.38
6406.24
6401.47
6397.12
6393.18
6389.68
6386.64
6384.06
6381.96
6380.34
6379.2
6378.53
6378.35
6378.62
6379.37
6380.57
6382.23
6384.35
6386.89
6389.84
6393.19
6396.94
6401.06
6405.56
6410.41
6415.61
6421.12
6426.94
6433.05
6439.45
6446.11
6453.02
6460.17
6467.54
6475.11
6482.89
6490.85
6498.97
6507.24
6515.66
6524.21
6532.88
6541.66
6550.53
6559.47
6568.48
6577.56
6586.68
6595.85
6605.05
6614.27
6623.49
6632.72
6641.94
6651.15
6660.33
6669.49
6678.6
6687.67
6696.69
6705.65
6714.55
6723.39
6732.16
6740.85
6749.46
6757.99
6766.44
6774.79
6783.05
6791.22
6799.29
6807.25
6815.12
6822.89
6830.55
6838.11
6845.56
6852.91
6860.15
6867.28
6874.29
6881.2
6888
6894.68
6901.26
6907.72
6914.07
6920.3
6926.42
6932.43
6938.32
6944.1
6949.76
6955.3
6960.74
6966.06
6971.26
6976.35
6981.32
6986.17
6990.92
6995.55
7000.07
7004.48
7008.78
7012.97
7017.04
7021.01
7024.88
7028.64
7032.3
7035.85
7039.31
7042.67
7045.93
7049.1
7052.18
7055.16
7058.07
7060.88
7063.62
7066.28
7068.85
7071.35
7073.78
7076.13
7078.41
7080.6
7082.71
7084.74
7086.68
7088.52
7090.27
7091.91
7093.45
7094.88
7096.21
7097.42
7098.53
7099.52
7100.39
7101.16
7101.8
7102.34
7102.76
7103.08
7103.28
7103.38
7103.37
7103.25
7103.04
7102.72
7102.32
7101.82
7101.23
7100.56
7099.81
7098.98
7098.08
7097.11
7096.07
7094.97
7093.81
7092.59
7091.32
7090
7088.65
7087.25
7085.82
7084.36
7082.87
7081.35
7079.81
7078.25
7076.68
7075.09
7073.49
7071.89
7070.28
7068.67
7067.05
7065.44
7063.84
7062.24
7060.64
7059.06
7057.49
7055.93
7054.38
7052.85
7051.33
7049.83
7048.35
7046.88
7045.43
7044
7042.59
7041.2
7039.83
7038.48
7037.16
7035.85
7034.57
7033.3
7032.06
7030.84
7029.64
7028.46
7027.3
7026.17
7025.05
7023.96
7022.88
7021.83
7020.8
7019.79
7018.8
7017.83
7016.87
7015.94
7015.03
7014.13
7013.25
7012.38
7011.54
7010.71
7009.89
7009.09
7008.31
7007.54
7006.79
7006.04
7005.32
7004.61
7003.91
7003.23
7002.55
7001.89
7001.23
7000.6
6999.95
6999.34
6998.75
6998.16
6997.54
6996.98
6996.3
6995.76
6995.37
6994.85
6994.39
6993.88
6993.4
6992.9
6992.45
6991.96
6991.51
6991.03
6990.58
6990.12
6989.67
6989.21
6988.76
6988.27
6987.83
6987.45
6987.01
6986.6
6986.15
6985.74
6985.28
6984.87
6984.42
6984
6983.56
6983.15
6982.7
6982.29
6981.83
6981.42
6981.02
6980.58
6980.22
6979.73
6979.35
6978.66
6978.33
6978.05
6977.7
6977.34
6976.97
6976.59
6976.23
6975.87
6975.51
6975.16
6974.81
6974.46
6974.11
6973.75
6973.4
6973.05
6972.7
6972.35
6971.99
6971.63
6971.27
6970.91
6970.54
6970.18
6969.81
6969.44
6969.07
6968.69
6968.32
6967.94
6967.57
6967.19
6966.81
6966.43
6966.05
6965.67
6965.28
6964.9
6964.52
6964.13
6963.75
6963.36
6962.98
6962.59
6962.2
6961.81
6961.43
6961.04
6960.65
6960.26
6959.87
6959.48
6959.09
6958.7
6958.3
6957.91
6957.52
6957.13
6956.74
6956.34
6955.95
6955.56
6955.17
6954.77
6954.38
6953.98
6953.59
6953.2
6952.8
6952.41
6952.01
6951.62
6951.22
6950.82
6950.43
6950.03
6949.63
6949.23
6948.84
6948.44
6948.04
6947.64
6947.24
6946.84
6946.44
6946.04
6945.64
6945.23
6944.83
6944.43
6944.03
6943.64
6943.1
7860.17
7857.81
7855.32
7852.12
7848.55
7845.08
7841.82
7838.42
7834.87
7831.36
7827.97
7824.6
7821.01
7817.49
7814.02
7810.6
7807.23
7803.84
7800.47
7797.1
7793.7
7790.27
7786.81
7783.31
7779.79
7776.25
7772.69
7769.1
7765.48
7761.86
7758.19
7754.47
7750.75
7747.02
7743.25
7739.44
7735.59
7731.73
7727.81
7723.87
7719.89
7715.91
7711.89
7707.83
7703.71
7699.56
7695.37
7691.15
7686.95
7682.65
7678.3
7673.9
7669.49
7665.06
7660.59
7656.05
7651.48
7646.86
7642.21
7637.49
7632.69
7627.92
7623.05
7618.12
7613.21
7608.26
7603.23
7598.16
7593.04
7587.85
7582.59
7577.25
7571.83
7566.31
7560.66
7554.88
7548.95
7542.83
7536.53
7530.04
7523.41
7516.66
7509.83
7502.87
7495.66
7488.3
7480.98
7473.88
7466.71
7458.92
7450.49
7442.11
7438.96
7439.42
7422.21
7378.73
7393.14
7385.89
7372.38
7363.44
7352.92
7337.89
7328.17
7316.14
7303.95
7291.81
7279.27
7266.75
7254.18
7241.47
7226.66
7212.25
7198.12
7184.42
7180.23
7162.04
7130.15
7109.62
7089.77
7070.53
7051.91
7031.01
7008.74
6986.18
6963.82
6941.66
6919.1
6895.38
6871.89
6848.42
6824.89
6807.3
6782.77
6751.89
6727.19
6702.84
6680.38
6657.32
6635.13
6612.67
6590.18
6568.52
6547.57
6527.09
6507.26
6488.03
6469.48
6451.6
6434.45
6417.96
6402.2
6387.14
6372.78
6359.1
6346.09
6333.73
6322.01
6310.91
6300.39
6290.43
6281
6272.07
6263.6
6255.59
6247.98
6240.77
6233.93
6227.44
6221.3
6215.51
6210.06
6205
6200.31
6196.04
6192.18
6188.76
6185.8
6183.3
6181.28
6179.74
6178.68
6178.11
6178.01
6178.38
6179.22
6180.53
6182.29
6184.51
6187.16
6190.22
6193.69
6197.55
6201.78
6206.39
6211.35
6216.66
6222.29
6228.22
6234.44
6240.95
6247.72
6254.74
6262
6269.48
6277.16
6285.04
6293.09
6301.31
6309.68
6318.19
6326.83
6335.59
6344.46
6353.41
6362.44
6371.53
6380.68
6389.88
6399.12
6408.38
6417.66
6426.95
6436.24
6445.52
6454.78
6464.01
6473.21
6482.37
6491.48
6500.54
6509.54
6518.48
6527.35
6536.15
6544.86
6553.5
6562.05
6570.52
6578.89
6587.16
6595.35
6603.43
6611.41
6619.28
6627.06
6634.73
6642.3
6649.76
6657.11
6664.35
6671.48
6678.5
6685.42
6692.22
6698.9
6705.48
6711.95
6718.3
6724.54
6730.66
6736.67
6742.56
6748.34
6754.01
6759.56
6765
6770.33
6775.54
6780.63
6785.61
6790.48
6795.24
6799.88
6804.41
6808.83
6813.15
6817.35
6821.45
6825.43
6829.31
6833.09
6836.77
6840.35
6843.82
6847.2
6850.49
6853.68
6856.78
6859.8
6862.72
6865.57
6868.32
6871
6873.6
6876.13
6878.57
6880.94
6883.23
6885.43
6887.56
6889.59
6891.54
6893.39
6895.14
6896.79
6898.33
6899.76
6901.09
6902.3
6903.4
6904.39
6905.25
6906.01
6906.65
6907.17
6907.58
6907.87
6908.06
6908.13
6908.1
6907.96
6907.72
6907.38
6906.95
6906.42
6905.81
6905.1
6904.32
6903.46
6902.52
6901.52
6900.45
6899.32
6898.13
6896.88
6895.58
6894.23
6892.85
6891.42
6889.96
6888.47
6886.95
6885.41
6883.85
6882.27
6880.67
6879.06
6877.44
6875.81
6874.18
6872.55
6870.92
6869.3
6867.68
6866.06
6864.45
6862.86
6861.27
6859.7
6858.14
6856.6
6855.07
6853.56
6852.07
6850.6
6849.15
6847.71
6846.3
6844.9
6843.53
6842.18
6840.85
6839.54
6838.25
6836.99
6835.75
6834.53
6833.33
6832.15
6830.99
6829.86
6828.74
6827.65
6826.58
6825.53
6824.5
6823.49
6822.5
6821.53
6820.58
6819.65
6818.73
6817.84
6816.96
6816.1
6815.25
6814.43
6813.61
6812.82
6812.03
6811.26
6810.51
6809.77
6809.05
6808.34
6807.63
6806.95
6806.27
6805.62
6805
6804.37
6803.77
6803.1
6802.52
6801.8
6801.24
6800.82
6800.29
6799.81
6799.28
6798.77
6798.26
6797.79
6797.28
6796.81
6796.32
6795.85
6795.38
6794.92
6794.44
6793.98
6793.48
6793.03
6792.65
6792.2
6791.79
6791.34
6790.92
6790.46
6790.03
6789.58
6789.16
6788.71
6788.29
6787.83
6787.42
6786.93
6786.53
6786.09
6785.69
6785.23
6784.84
6784.16
6783.83
6783.55
6783.2
6782.82
6782.43
6782.05
6781.65
6781.27
6780.9
6780.53
6780.17
6779.8
6779.44
6779.08
6778.71
6778.36
6778
6777.64
6777.28
6776.92
6776.56
6776.2
6775.84
6775.48
6775.11
6774.75
6774.38
6774.01
6773.64
6773.26
6772.89
6772.51
6772.14
6771.76
6771.38
6771
6770.62
6770.24
6769.86
6769.48
6769.09
6768.71
6768.33
6767.94
6767.55
6767.17
6766.78
6766.39
6766.01
6765.62
6765.23
6764.84
6764.45
6764.06
6763.67
6763.28
6762.89
6762.5
6762.11
6761.72
6761.32
6760.93
6760.54
6760.15
6759.75
6759.36
6758.97
6758.57
6758.18
6757.79
6757.39
6757
6756.6
6756.21
6755.81
6755.42
6755.02
6754.63
6754.23
6753.83
6753.44
6753.04
6752.64
6752.24
6751.85
6751.45
6751.05
6750.65
6750.25
6749.85
6749.44
6749.04
6748.64
6748.23
6747.84
6747.45
6746.9
7663.76
7661.41
7658.93
7655.73
7652.17
7648.71
7645.47
7642.09
7638.57
7635.11
7631.81
7628.48
7624.87
7621.42
7618.03
7614.62
7611.24
7607.86
7604.49
7601.1
7597.7
7594.27
7590.81
7587.31
7583.82
7580.29
7576.75
7573.17
7569.57
7565.96
7562.31
7558.62
7554.93
7551.17
7547.38
7543.56
7539.78
7535.96
7532.05
7528.14
7524.19
7520.2
7516.21
7512.15
7508.04
7503.88
7499.71
7495.49
7491.29
7487.07
7482.67
7478.26
7473.86
7469.42
7464.94
7460.4
7455.81
7451.17
7446.48
7441.74
7436.92
7432.08
7427.19
7422.23
7417.21
7412.14
7407.03
7401.85
7396.6
7391.28
7385.87
7380.38
7374.79
7369.09
7363.25
7357.3
7351.2
7344.93
7338.48
7331.91
7325.19
7318.27
7311.25
7304.07
7296.76
7289.36
7282
7274.48
7266.63
7258.44
7250.43
7242.54
7234.17
7225.08
7215.69
7211.81
7211.82
7193.95
7149.07
7162.84
7154.99
7139.9
7130.01
7118.06
7101.97
7091.16
7078.12
7064.92
7051.92
7038.56
7024.67
7010.94
6996.81
6980.44
6964.46
6948.56
6933.56
6927.96
6907.98
6873.74
6851.57
6830.27
6809.43
6789.21
6766.85
6743.18
6719.43
6696.05
6672.87
6649.49
6624.96
6601.19
6576.16
6553.2
6530.84
6512.19
6488.73
6459.58
6435.99
6413.72
6391.43
6369.92
6348.59
6327.46
6307.25
6287.87
6269.06
6250.98
6233.56
6216.88
6200.88
6185.65
6171.09
6157.24
6144.05
6131.54
6119.67
6108.42
6097.78
6087.71
6078.18
6069.16
6060.63
6052.57
6044.94
6037.73
6030.91
6024.47
6018.39
6012.68
6007.34
6002.38
5997.82
5993.66
5989.92
5986.62
5983.78
5981.4
5979.5
5978.08
5977.14
5976.68
5976.71
5977.21
5978.18
5979.62
5981.52
5983.86
5986.64
5989.84
5993.45
5997.46
6001.84
6006.59
6011.69
6017.14
6022.9
6028.97
6035.34
6041.98
6048.88
6056.04
6063.43
6071.04
6078.85
6086.85
6095.02
6103.36
6111.85
6120.48
6129.23
6138.09
6147.06
6156.11
6165.23
6174.42
6183.67
6192.96
6202.28
6211.62
6220.98
6230.34
6239.71
6249.05
6258.38
6267.67
6276.92
6286.13
6295.3
6304.41
6313.46
6322.44
6331.35
6340.18
6348.92
6357.59
6366.17
6374.66
6383.05
6391.34
6399.54
6407.64
6415.63
6423.53
6431.31
6438.99
6446.57
6454.03
6461.39
6468.64
6475.78
6482.81
6489.72
6496.52
6503.22
6509.79
6516.26
6522.62
6528.86
6534.99
6541
6546.9
6552.69
6558.36
6563.92
6569.37
6574.7
6579.93
6585.03
6590.03
6594.91
6599.68
6604.34
6608.88
6613.32
6617.65
6621.87
6625.99
6630
6633.91
6637.71
6641.41
6645.01
6648.52
6651.93
6655.24
6658.46
6661.6
6664.64
6667.6
6670.47
6673.26
6675.97
6678.59
6681.14
6683.61
6685.99
6688.3
6690.52
6692.66
6694.7
6696.65
6698.51
6700.26
6701.92
6703.46
6704.9
6706.22
6707.43
6708.52
6709.5
6710.35
6711.1
6711.72
6712.22
6712.61
6712.89
6713.05
6713.1
6713.04
6712.87
6712.6
6712.23
6711.76
6711.2
6710.54
6709.8
6708.98
6708.07
6707.1
6706.05
6704.94
6703.77
6702.55
6701.26
6699.93
6698.55
6697.13
6695.67
6694.17
6692.65
6691.1
6689.53
6687.93
6686.32
6684.69
6683.06
6681.41
6679.76
6678.11
6676.46
6674.81
6673.16
6671.52
6669.89
6668.26
6666.65
6665.05
6663.47
6661.9
6660.34
6658.8
6657.28
6655.78
6654.3
6652.84
6651.4
6649.98
6648.58
6647.2
6645.85
6644.52
6643.21
6641.92
6640.65
6639.41
6638.19
6636.99
6635.82
6634.66
6633.53
6632.42
6631.33
6630.26
6629.21
6628.18
6627.17
6626.19
6625.22
6624.27
6623.34
6622.43
6621.53
6620.66
6619.8
6618.96
6618.13