/*--------------------------------*- C++ -*----------------------------------*\
| =========                 |                                                 |
| \\      /  F ield         | OpenFOAM: The Open Source CFD Toolbox           |
|  \\    /   O peration     | Version:  v2006                                 |
|   \\  /    A nd           | Website:  www.openfoam.com                      |
|    \\/     M anipulation  |                                                 |
\*---------------------------------------------------------------------------*/
FoamFile
{
    version     2.0;
    format      ascii;
    class       volScalarField;
    location    "4.8";
    object      p_rgh;
}
// * * * * * * * * * * * * * * * * * * * * * * * * * * * * * * * * * * * * * //

dimensions      [1 -1 -2 0 0 0 0];


internalField   nonuniform List<scalar> 
33000
(
8940.08
8937.77
8935.27
8932.12
8928.77
8925.48
8922.45
8919.55
8916.74
8913.74
8910.41
8906.39
8900.99
8895.03
8889.84
8886.68
8884.37
8882.16
8879.35
8876
8872.66
8869.14
8865.55
8861.94
8858.33
8854.72
8851.08
8847.4
8843.67
8839.98
8836.22
8832.51
8828.69
8824.88
8821.04
8817.21
8813.38
8809.47
8805.55
8801.59
8797.55
8793.56
8789.54
8785.44
8781.35
8777.2
8772.98
8768.77
8764.52
8760.24
8755.91
8751.55
8747.14
8742.68
8738.2
8733.68
8729.14
8724.55
8720.01
8715.4
8710.78
8706.17
8701.53
8696.88
8692.24
8687.59
8682.96
8678.4
8673.88
8669.49
8665.28
8661.26
8657.56
8654.27
8651.5
8649.6
8649.2
8647.66
8631.72
8600.46
8613.1
8605.42
8594.28
8588.64
8579.99
8569.23
8562.78
8555.48
8547.42
8539.22
8531.46
8523.4
8515.24
8507.66
8500.37
8493.1
8487.69
8480.8
8480.48
8470.21
8449.84
8438.02
8425.1
8411.96
8399.62
8385.65
8370.7
8355.6
8340.7
8325.95
8310.59
8295.26
8279.69
8263.91
8248.56
8232.56
8220.36
8202.24
8177.27
8157.85
8136.75
8114.86
8093.47
8070.97
8047.47
8024.09
8000.41
7976.57
7952.68
7928.69
7904.59
7880.55
7856.62
7832.85
7809.33
7786.04
7763.07
7740.43
7718.17
7696.31
7674.93
7654.03
7633.63
7613.78
7594.53
7575.89
7557.86
7540.47
7523.73
7507.67
7492.31
7477.61
7463.58
7450.2
7437.48
7425.42
7413.98
7403.13
7392.85
7383.12
7373.91
7365.17
7356.88
7349.01
7341.54
7334.41
7327.6
7321.07
7314.84
7308.91
7303.32
7298.09
7293.25
7288.83
7284.84
7281.27
7278.15
7275.48
7273.27
7271.55
7270.29
7269.49
7269.15
7269.29
7269.89
7270.93
7272.39
7274.3
7276.65
7279.41
7282.56
7286.11
7290.02
7294.29
7298.93
7303.91
7309.2
7314.81
7320.71
7326.89
7333.33
7340.02
7346.96
7354.12
7361.51
7369.08
7376.84
7384.77
7392.85
7401.09
7409.47
7417.96
7426.55
7435.25
7444.05
7452.92
7461.85
7470.82
7479.84
7488.89
7497.99
7507.09
7516.21
7525.31
7534.4
7543.47
7552.53
7561.56
7570.55
7579.49
7588.38
7597.2
7605.97
7614.68
7623.33
7631.89
7640.38
7648.78
7657.09
7665.32
7673.45
7681.49
7689.44
7697.29
7705.04
7712.69
7720.24
7727.67
7735
7742.24
7749.36
7756.37
7763.27
7770.06
7776.74
7783.31
7789.77
7796.12
7802.35
7808.46
7814.46
7820.35
7826.12
7831.78
7837.32
7842.73
7848.03
7853.22
7858.29
7863.25
7868.1
7872.82
7877.43
7881.92
7886.31
7890.58
7894.74
7898.79
7902.73
7906.57
7910.3
7913.92
7917.44
7920.86
7924.18
7927.41
7930.54
7933.58
7936.53
7939.39
7942.17
7944.86
7947.48
7950.01
7952.47
7954.86
7957.17
7959.42
7961.59
7963.67
7965.68
7967.59
7969.41
7971.14
7972.77
7974.29
7975.72
7977.04
7978.25
7979.35
7980.35
7981.23
7982.01
7982.68
7983.24
7983.69
7984.04
7984.28
7984.42
7984.45
7984.38
7984.21
7983.95
7983.6
7983.16
7982.63
7982.01
7981.32
7980.55
7979.71
7978.79
7977.81
7976.77
7975.68
7974.52
7973.31
7972.06
7970.75
7969.41
7968.03
7966.62
7965.18
7963.71
7962.22
7960.71
7959.18
7957.64
7956.09
7954.53
7952.96
7951.38
7949.81
7948.23
7946.65
7945.08
7943.52
7941.96
7940.42
7938.88
7937.35
7935.84
7934.34
7932.85
7931.38
7929.93
7928.49
7927.08
7925.68
7924.3
7922.94
7921.6
7920.27
7918.97
7917.69
7916.43
7915.18
7913.96
7912.76
7911.58
7910.42
7909.28
7908.16
7907.07
7905.99
7904.94
7903.9
7902.89
7901.89
7900.91
7899.96
7899.02
7898.1
7897.2
7896.32
7895.45
7894.6
7893.77
7892.95
7892.15
7891.36
7890.59
7889.83
7889.08
7888.35
7887.64
7886.93
7886.24
7885.56
7884.9
7884.24
7883.6
7882.97
7882.34
7881.73
7881.13
7880.54
7879.96
7879.38
7878.82
7878.27
7877.73
7877.19
7876.66
7876.14
7875.63
7875.14
7874.65
7874.15
7873.7
7873.16
7872.72
7872.37
7871.94
7871.54
7871.1
7870.68
7870.24
7869.81
7869.37
7868.94
7868.5
7868.06
7867.63
7867.2
7866.77
7866.33
7865.91
7865.46
7865.04
7864.66
7864.25
7863.85
7863.43
7863.02
7862.59
7862.19
7861.76
7861.35
7860.93
7860.52
7860.09
7859.69
7859.26
7858.87
7858.49
7858.09
7857.7
7857.37
7856.81
7856.55
7856.31
7856.03
7855.73
7855.41
7855.09
7854.76
7854.42
7854.07
7853.72
7853.37
7853.01
7852.65
7852.28
7851.92
7851.55
7851.18
7850.81
7850.43
7850.06
7849.68
7849.3
7848.93
7848.55
7848.17
7847.78
7847.4
7847.02
7846.63
7846.25
7845.86
7845.48
7845.09
7844.7
7844.32
7843.93
7843.54
7843.15
7842.76
7842.37
7841.98
7841.59
7841.2
7840.81
7840.42
7840.02
7839.63
7839.24
7838.85
7838.45
7838.06
7837.67
7837.27
7836.88
7836.48
7836.09
7835.69
7835.3
7834.9
7834.51
7834.11
7833.72
7833.32
7832.92
7832.52
7832.13
7831.73
7831.33
7830.93
7830.53
7830.13
7829.73
7829.33
7828.93
7828.52
7828.12
7827.72
7827.31
7826.91
7826.52
7825.98
8940
8937.67
8935.17
8932
8928.51
8925.18
8922.13
8919.04
8915.83
8912.08
8907.61
8902.57
8897
8890.74
8885.84
8883.03
8882.15
8880.98
8878.8
8876.07
8872.86
8869.31
8865.71
8862.04
8858.41
8854.8
8851.2
8847.54
8843.82
8839.98
8836.24
8832.42
8828.77
8825.01
8821.06
8817.22
8813.35
8809.56
8805.69
8801.69
8797.58
8793.54
8789.51
8785.55
8781.49
8777.32
8773.07
8768.78
8764.58
8760.36
8756
8751.61
8747.23
8742.83
8738.36
8733.8
8729.12
8724.58
8719.94
8715.36
8710.82
8706.14
8701.41
8696.8
8692.19
8687.56
8682.84
8678.12
8673.52
8668.96
8664.54
8660.25
8655.91
8651.71
8647.61
8643.33
8638.65
8633.48
8628.11
8625.61
8624.75
8608.7
8574.07
8587.86
8579.63
8570.7
8564.84
8557.05
8548.71
8537.38
8531.02
8522.76
8514.45
8506.64
8498.66
8490.68
8483.03
8475.42
8467.74
8459.32
8450.06
8447.99
8435.18
8411.32
8397.09
8382.2
8369.32
8355.36
8342.84
8328.23
8311.83
8295.65
8279.28
8263.02
8247.06
8230.56
8213.92
8196.4
8177.51
8163.45
8142.89
8115.05
8092.93
8070.09
8047.18
8024.91
8001.52
7977.17
7952.91
7928.73
7904.61
7880.62
7856.67
7832.8
7809.21
7785.85
7762.85
7740.17
7717.85
7695.97
7674.55
7653.63
7633.19
7613.29
7594.01
7575.35
7557.29
7539.85
7523.07
7507.01
7491.65
7476.94
7462.89
7449.48
7436.76
7424.68
7413.25
7402.39
7392.09
7382.37
7373.15
7364.41
7356.1
7348.24
7340.77
7333.63
7326.79
7320.25
7314.04
7308.12
7302.51
7297.26
7292.42
7288
7284.02
7280.45
7277.31
7274.64
7272.45
7270.74
7269.49
7268.68
7268.35
7268.52
7269.15
7270.2
7271.67
7273.6
7275.95
7278.74
7281.92
7285.48
7289.42
7293.7
7298.36
7303.34
7308.66
7314.31
7320.24
7326.44
7332.88
7339.59
7346.55
7353.74
7361.16
7368.75
7376.52
7384.46
7392.57
7400.83
7409.23
7417.74
7426.34
7435.04
7443.85
7452.76
7461.71
7470.7
7479.72
7488.78
7497.88
7507.01
7516.15
7525.27
7534.36
7543.44
7552.5
7561.53
7570.53
7579.49
7588.39
7597.22
7605.99
7614.71
7623.35
7631.92
7640.43
7648.83
7657.14
7665.37
7673.51
7681.55
7689.49
7697.35
7705.1
7712.77
7720.31
7727.74
7735.07
7742.3
7749.43
7756.45
7763.35
7770.14
7776.82
7783.39
7789.85
7796.19
7802.43
7808.55
7814.54
7820.43
7826.2
7831.86
7837.4
7842.82
7848.11
7853.3
7858.37
7863.34
7868.19
7872.92
7877.53
7882.02
7886.4
7890.68
7894.85
7898.9
7902.84
7906.68
7910.41
7914.04
7917.56
7920.98
7924.31
7927.54
7930.68
7933.72
7936.67
7939.53
7942.31
7945.01
7947.63
7950.17
7952.63
7955.02
7957.34
7959.59
7961.76
7963.86
7965.86
7967.77
7969.6
7971.33
7972.96
7974.49
7975.91
7977.23
7978.45
7979.55
7980.55
7981.43
7982.21
7982.88
7983.44
7983.89
7984.23
7984.46
7984.6
7984.63
7984.55
7984.38
7984.12
7983.76
7983.31
7982.78
7982.16
7981.46
7980.69
7979.83
7978.91
7977.93
7976.88
7975.77
7974.61
7973.4
7972.13
7970.83
7969.48
7968.1
7966.68
7965.24
7963.76
7962.27
7960.75
7959.22
7957.68
7956.12
7954.55
7952.98
7951.4
7949.82
7948.24
7946.66
7945.09
7943.52
7941.96
7940.41
7938.87
7937.34
7935.83
7934.33
7932.84
7931.37
7929.91
7928.48
7927.06
7925.66
7924.28
7922.92
7921.57
7920.25
7918.95
7917.67
7916.4
7915.16
7913.94
7912.74
7911.56
7910.4
7909.26
7908.14
7907.05
7905.97
7904.91
7903.88
7902.86
7901.87
7900.89
7899.94
7899
7898.08
7897.18
7896.3
7895.43
7894.58
7893.75
7892.93
7892.13
7891.34
7890.57
7889.81
7889.07
7888.34
7887.62
7886.92
7886.23
7885.55
7884.89
7884.23
7883.59
7882.96
7882.33
7881.72
7881.12
7880.53
7879.95
7879.38
7878.81
7878.26
7877.71
7877.18
7876.66
7876.15
7875.62
7875.13
7874.56
7874.08
7873.72
7873.26
7872.85
7872.42
7871.99
7871.56
7871.13
7870.69
7870.25
7869.82
7869.37
7868.94
7868.5
7868.07
7867.63
7867.2
7866.73
7866.31
7865.92
7865.5
7865.09
7864.68
7864.26
7863.85
7863.43
7863.02
7862.6
7862.18
7861.77
7861.34
7860.93
7860.48
7860.09
7859.68
7859.3
7858.87
7858.51
7857.9
7857.59
7857.35
7857.05
7856.74
7856.43
7856.12
7855.8
7855.47
7855.13
7854.79
7854.45
7854.1
7853.75
7853.39
7853.03
7852.67
7852.3
7851.93
7851.56
7851.19
7850.82
7850.44
7850.07
7849.69
7849.31
7848.93
7848.55
7848.17
7847.79
7847.41
7847.02
7846.64
7846.25
7845.87
7845.48
7845.1
7844.71
7844.32
7843.93
7843.54
7843.15
7842.77
7842.38
7841.98
7841.59
7841.2
7840.81
7840.42
7840.03
7839.63
7839.24
7838.85
7838.46
7838.06
7837.67
7837.27
7836.88
7836.48
7836.09
7835.69
7835.3
7834.9
7834.51
7834.11
7833.71
7833.32
7832.92
7832.52
7832.12
7831.73
7831.33
7830.93
7830.53
7830.13
7829.73
7829.33
7828.93
7828.53
7828.12
7827.72
7827.32
7826.92
7826.53
7825.98
8939.85
8937.51
8935.02
8931.83
8928.31
8924.89
8921.72
8918.37
8915.15
8911.58
8907.46
8902.66
8897.93
8893.04
8888.81
8885.7
8883.32
8881.04
8878.52
8875.78
8872.52
8869.09
8865.6
8862.07
8858.48
8854.74
8851.09
8847.43
8843.87
8840.18
8836.36
8832.41
8828.62
8824.92
8821.23
8817.29
8813.49
8809.78
8805.9
8801.88
8797.7
8793.59
8789.7
8785.8
8781.71
8777.51
8773.18
8768.88
8764.58
8760.45
8756.22
8751.75
8747.42
8743.03
8738.49
8733.75
8729.17
8724.62
8719.98
8715.53
8710.89
8706.04
8701.37
8696.66
8692.13
8687.48
8682.69
8677.78
8673.07
8668.41
8663.9
8659.31
8654.68
8649.99
8645.29
8640.45
8635.3
8629.72
8623.62
8616.77
8610
8603.67
8602.04
8602.64
8587.17
8548.16
8559.8
8557.28
8548.64
8539.56
8532.39
8524.16
8512.31
8505.5
8497.07
8488.82
8480.98
8472.29
8463.58
8454.25
8443.45
8433.27
8422.94
8412.77
8410.67
8396.34
8370.37
8353.75
8338.76
8324.84
8310.17
8296.63
8280.98
8264.02
8246.75
8229.39
8212.11
8194.03
8174.8
8155.29
8135.66
8115.16
8099.78
8077.61
8048.01
8024.61
8000.61
7976.87
7953.85
7929.82
7905.07
7880.66
7856.56
7832.65
7808.97
7785.59
7762.54
7739.77
7717.37
7695.4
7673.83
7652.77
7632.25
7612.31
7593
7574.25
7556.07
7538.56
7521.77
7505.71
7490.3
7475.54
7461.4
7447.96
7435.28
7423.22
7411.71
7400.78
7390.47
7380.76
7371.54
7362.75
7354.41
7346.52
7339.07
7331.92
7325.03
7318.49
7312.3
7306.41
7300.78
7295.54
7290.71
7286.29
7282.33
7278.77
7275.63
7272.98
7270.83
7269.12
7267.83
7267.06
7266.77
7267
7267.65
7268.73
7270.26
7272.21
7274.55
7277.35
7280.56
7284.22
7288.22
7292.57
7297.26
7302.25
7307.6
7313.29
7319.28
7325.53
7332
7338.75
7345.76
7353.02
7360.46
7368.09
7375.88
7383.86
7392.02
7400.33
7408.75
7417.28
7425.9
7434.67
7443.54
7452.45
7461.43
7470.45
7479.5
7488.58
7497.7
7506.87
7516.03
7525.17
7534.29
7543.37
7552.45
7561.51
7570.55
7579.51
7588.42
7597.27
7606.04
7614.77
7623.45
7632.03
7640.53
7648.94
7657.26
7665.48
7673.61
7681.66
7689.62
7697.51
7705.26
7712.91
7720.46
7727.9
7735.22
7742.45
7749.59
7756.61
7763.51
7770.29
7776.98
7783.56
7790.03
7796.37
7802.6
7808.7
7814.69
7820.6
7826.38
7832.04
7837.57
7842.98
7848.29
7853.48
7858.56
7863.53
7868.38
7873.11
7877.73
7882.23
7886.61
7890.89
7895.05
7899.11
7903.07
7906.92
7910.66
7914.28
7917.81
7921.24
7924.58
7927.82
7930.96
7934.01
7936.96
7939.83
7942.62
7945.33
7947.95
7950.5
7952.97
7955.37
7957.7
7959.95
7962.12
7964.22
7966.24
7968.16
7969.99
7971.72
7973.35
7974.89
7976.32
7977.64
7978.85
7979.96
7980.96
7981.84
7982.61
7983.28
7983.83
7984.28
7984.61
7984.84
7984.96
7984.98
7984.91
7984.73
7984.45
7984.09
7983.63
7983.08
7982.45
7981.74
7980.95
7980.09
7979.15
7978.15
7977.09
7975.97
7974.79
7973.57
7972.3
7970.99
7969.63
7968.24
7966.81
7965.36
7963.87
7962.37
7960.84
7959.3
7957.75
7956.18
7954.6
7953.02
7951.44
7949.85
7948.26
7946.68
7945.1
7943.53
7941.96
7940.41
7938.86
7937.33
7935.81
7934.31
7932.82
7931.34
7929.89
7928.45
7927.03
7925.62
7924.24
7922.88
7921.53
7920.21
7918.91
7917.62
7916.36
7915.12
7913.89
7912.69
7911.51
7910.35
7909.22
7908.1
7907
7905.93
7904.87
7903.84
7902.83
7901.83
7900.86
7899.9
7898.97
7898.05
7897.15
7896.27
7895.4
7894.55
7893.72
7892.9
7892.1
7891.31
7890.54
7889.78
7889.04
7888.31
7887.6
7886.89
7886.21
7885.53
7884.86
7884.21
7883.57
7882.93
7882.31
7881.7
7881.11
7880.51
7879.93
7879.35
7878.79
7878.25
7877.72
7877.16
7876.64
7876.04
7875.54
7875.17
7874.69
7874.26
7873.8
7873.35
7872.9
7872.47
7872.02
7871.59
7871.14
7870.71
7870.28
7869.83
7869.4
7868.95
7868.52
7868.04
7867.62
7867.22
7866.8
7866.38
7865.97
7865.54
7865.12
7864.7
7864.28
7863.88
7863.45
7863.05
7862.6
7862.2
7861.73
7861.34
7860.92
7860.53
7860.08
7859.7
7859.06
7858.75
7858.48
7858.15
7857.8
7857.46
7857.12
7856.79
7856.47
7856.14
7855.81
7855.47
7855.13
7854.79
7854.44
7854.09
7853.74
7853.38
7853.02
7852.66
7852.29
7851.93
7851.56
7851.19
7850.82
7850.44
7850.07
7849.69
7849.31
7848.93
7848.55
7848.17
7847.79
7847.41
7847.02
7846.64
7846.25
7845.87
7845.48
7845.09
7844.71
7844.32
7843.93
7843.54
7843.15
7842.76
7842.37
7841.98
7841.59
7841.2
7840.81
7840.42
7840.03
7839.63
7839.24
7838.85
7838.46
7838.06
7837.67
7837.27
7836.88
7836.49
7836.09
7835.7
7835.3
7834.91
7834.51
7834.11
7833.72
7833.32
7832.92
7832.53
7832.13
7831.73
7831.33
7830.93
7830.53
7830.13
7829.73
7829.33
7828.93
7828.53
7828.12
7827.72
7827.32
7826.92
7826.53
7825.99
8939.68
8937.31
8934.82
8931.62
8928.07
8924.6
8921.36
8918.01
8914.46
8910.86
8907
8903.07
8899.12
8895.19
8891.41
8888.14
8885.13
8882.15
8879.1
8875.93
8872.61
8869.2
8865.72
8862.18
8858.61
8854.96
8851.18
8847.59
8844.06
8840.44
8836.71
8832.64
8828.73
8825.07
8821.59
8817.8
8813.84
8810.06
8806.24
8802.31
8798.22
8794.05
8790.07
8786.15
8782.05
8777.85
8773.52
8769.08
8764.85
8760.79
8756.57
8752.09
8747.68
8743.34
8738.85
8734.24
8729.34
8724.92
8720.51
8715.67
8710.8
8706.1
8701.32
8696.58
8692.12
8687.42
8682.57
8677.58
8672.56
8667.7
8662.9
8658.19
8653.29
8648.26
8643.12
8637.79
8632.03
8626.17
8619.96
8613.54
8607.42
8600.8
8593.47
8585.43
8576.96
8573.18
8574.27
8571.94
8555.33
8516.77
8530.71
8523.18
8513.11
8505.84
8496.73
8484.49
8476.91
8467.72
8458.34
8449.12
8438.56
8428.47
8417.68
8404.19
8392.38
8378.92
8368.74
8357.96
8355.2
8340.89
8313.05
8295.68
8278.32
8262.27
8247.38
8230.07
8211.37
8192.32
8172.96
8153.71
8133.73
8112.52
8091.1
8069.88
8048.1
8031.86
8008.51
7977.62
7953.26
7928.72
7904.58
7881.3
7857.19
7832.62
7808.57
7784.79
7761.66
7738.8
7716.43
7694.42
7672.76
7651.51
7630.85
7610.78
7591.4
7572.52
7554.2
7536.64
7519.78
7503.69
7488.18
7473.28
7459.1
7445.64
7432.94
7420.83
7409.29
7398.28
7387.93
7378.12
7368.89
7360.1
7351.71
7343.79
7336.31
7329.13
7322.21
7315.69
7309.47
7303.64
7298.1
7292.83
7288.02
7283.61
7279.63
7276.13
7273.09
7270.46
7268.3
7266.55
7265.33
7264.61
7264.38
7264.67
7265.36
7266.49
7268.07
7270.03
7272.46
7275.32
7278.59
7282.29
7286.39
7290.81
7295.57
7300.64
7306.02
7311.77
7317.85
7324.16
7330.73
7337.51
7344.57
7351.89
7359.4
7367.07
7374.93
7382.97
7391.22
7399.57
7408.04
7416.59
7425.28
7434.08
7442.99
7451.99
7461.01
7470.06
7479.12
7488.26
7497.43
7506.65
7515.85
7525.02
7534.17
7543.31
7552.41
7561.47
7570.5
7579.5
7588.46
7597.34
7606.15
7614.86
7623.53
7632.15
7640.68
7649.09
7657.39
7665.64
7673.79
7681.89
7689.86
7697.72
7705.47
7713.12
7720.66
7728.09
7735.44
7742.69
7749.84
7756.85
7763.73
7770.51
7777.23
7783.81
7790.27
7796.61
7802.82
7808.93
7814.94
7820.84
7826.64
7832.3
7837.84
7843.27
7848.56
7853.75
7858.83
7863.82
7868.67
7873.4
7878
7882.52
7886.94
7891.23
7895.39
7899.45
7903.41
7907.27
7911.02
7914.66
7918.19
7921.63
7924.99
7928.24
7931.38
7934.43
7937.41
7940.31
7943.11
7945.82
7948.45
7951
7953.5
7955.92
7958.25
7960.51
7962.69
7964.79
7966.82
7968.75
7970.58
7972.31
7973.96
7975.51
7976.94
7978.25
7979.47
7980.58
7981.57
7982.45
7983.22
7983.88
7984.43
7984.87
7985.19
7985.41
7985.52
7985.53
7985.43
7985.24
7984.95
7984.56
7984.09
7983.53
7982.88
7982.15
7981.35
7980.46
7979.52
7978.5
7977.42
7976.28
7975.09
7973.84
7972.55
7971.22
7969.85
7968.44
7967
7965.53
7964.03
7962.51
7960.97
7959.42
7957.85
7956.27
7954.68
7953.09
7951.49
7949.89
7948.3
7946.71
7945.12
7943.54
7941.96
7940.4
7938.85
7937.31
7935.78
7934.27
7932.78
7931.3
7929.84
7928.39
7926.97
7925.57
7924.18
7922.81
7921.47
7920.14
7918.84
7917.55
7916.29
7915.05
7913.83
7912.63
7911.45
7910.29
7909.15
7908.03
7906.94
7905.87
7904.81
7903.78
7902.77
7901.77
7900.8
7899.85
7898.91
7897.99
7897.09
7896.21
7895.35
7894.5
7893.67
7892.85
7892.05
7891.27
7890.5
7889.74
7889
7888.27
7887.56
7886.85
7886.17
7885.49
7884.83
7884.18
7883.54
7882.92
7882.28
7881.68
7881.06
7880.48
7879.92
7879.35
7878.77
7878.23
7877.59
7877.07
7876.68
7876.19
7875.74
7875.26
7874.79
7874.32
7873.87
7873.41
7872.97
7872.51
7872.07
7871.63
7871.19
7870.75
7870.29
7869.86
7869.37
7868.94
7868.55
7868.12
7867.7
7867.28
7866.84
7866.42
7865.98
7865.57
7865.13
7864.73
7864.28
7863.88
7863.42
7863.02
7862.61
7862.2
7861.8
7861.35
7860.96
7860.3
7859.97
7859.7
7859.37
7859.02
7858.67
7858.3
7857.95
7857.61
7857.26
7856.92
7856.58
7856.24
7855.89
7855.55
7855.2
7854.85
7854.5
7854.14
7853.78
7853.42
7853.06
7852.69
7852.32
7851.95
7851.58
7851.21
7850.83
7850.45
7850.08
7849.7
7849.32
7848.94
7848.56
7848.18
7847.8
7847.41
7847.03
7846.64
7846.26
7845.87
7845.49
7845.1
7844.71
7844.32
7843.94
7843.55
7843.16
7842.77
7842.38
7841.99
7841.6
7841.2
7840.81
7840.42
7840.03
7839.64
7839.24
7838.85
7838.46
7838.06
7837.67
7837.28
7836.88
7836.49
7836.09
7835.7
7835.3
7834.91
7834.51
7834.12
7833.72
7833.32
7832.93
7832.53
7832.13
7831.73
7831.33
7830.94
7830.54
7830.14
7829.74
7829.34
7828.93
7828.53
7828.13
7827.73
7827.32
7826.92
7826.53
7825.99
8939.48
8937.12
8934.63
8931.42
8927.85
8924.38
8921.12
8917.73
8914.16
8910.6
8906.95
8903.38
8899.84
8896.24
8892.62
8889.16
8885.76
8882.53
8879.29
8876
8872.65
8869.24
8865.77
8862.26
8858.72
8855.15
8851.49
8847.88
8844.28
8840.65
8836.97
8833.15
8829.05
8825.48
8821.94
8818.17
8814.32
8810.42
8806.52
8802.59
8798.58
8794.58
8790.54
8786.47
8782.37
8778.23
8773.98
8769.66
8765.36
8761.18
8756.92
8752.55
8748.14
8743.72
8739.25
8734.65
8730
8725.44
8720.87
8716.14
8711.1
8706.18
8701.32
8696.62
8692.14
8687.36
8682.42
8677.45
8672.42
8667.14
8662.01
8656.99
8651.94
8646.68
8641.27
8635.69
8629.7
8623.57
8617.44
8611.34
8604.92
8598.17
8591.1
8584.32
8577.53
8570.67
8563.58
8555.95
8548.78
8546.43
8546.92
8530.09
8488.33
8503.33
8496.09
8484.38
8476.42
8466.73
8453.34
8444.85
8434.36
8423.36
8412.64
8400.78
8389.5
8377.69
8363.38
8351.06
8337.62
8325.69
8313.15
8310.2
8293.57
8263.62
8244.83
8226.51
8209.01
8192.21
8173.02
8152.36
8131.27
8110.22
8089.42
8068.04
8045.43
8022.83
8000.17
7977.19
7960.12
7936.06
7904.94
7880.27
7855.55
7831.54
7807.99
7784.98
7761.63
7738.08
7715.25
7693.01
7671.28
7649.96
7629
7608.69
7589.03
7570.16
7551.74
7533.97
7517
7500.83
7485.18
7470.13
7455.9
7442.38
7429.62
7417.42
7405.81
7394.76
7384.27
7374.4
7365.04
7356.24
7347.9
7339.94
7332.35
7325.06
7318.21
7311.69
7305.52
7299.76
7294.26
7289.03
7284.25
7279.89
7275.97
7272.56
7269.53
7266.91
7264.72
7263.09
7261.95
7261.31
7261.22
7261.51
7262.26
7263.46
7265.11
7267.14
7269.65
7272.61
7275.96
7279.73
7283.94
7288.44
7293.3
7298.49
7303.94
7309.74
7315.89
7322.33
7328.99
7335.9
7342.98
7350.33
7357.9
7365.69
7373.72
7381.86
7390.13
7398.54
7407.03
7415.67
7424.45
7433.32
7442.32
7451.37
7460.44
7469.51
7478.66
7487.86
7497.12
7506.36
7515.57
7524.75
7533.96
7543.18
7552.38
7561.48
7570.5
7579.5
7588.46
7597.39
7606.24
7614.99
7623.68
7632.34
7640.88
7649.28
7657.61
7665.87
7674.04
7682.16
7690.13
7698
7705.72
7713.38
7720.94
7728.4
7735.75
7743.03
7750.16
7757.16
7764.04
7770.83
7777.52
7784.14
7790.61
7796.91
7803.14
7809.26
7815.27
7821.19
7826.98
7832.65
7838.2
7843.63
7848.93
7854.11
7859.2
7864.2
7869.06
7873.78
7878.41
7882.93
7887.37
7891.67
7895.84
7899.91
7903.88
7907.76
7911.51
7915.16
7918.72
7922.2
7925.54
7928.79
7931.96
7935.04
7938.04
7940.96
7943.77
7946.5
7949.15
7951.73
7954.23
7956.66
7959.02
7961.3
7963.48
7965.59
7967.62
7969.55
7971.39
7973.14
7974.79
7976.34
7977.77
7979.09
7980.31
7981.42
7982.41
7983.27
7984.04
7984.69
7985.23
7985.66
7985.97
7986.17
7986.26
7986.25
7986.14
7985.93
7985.62
7985.21
7984.71
7984.12
7983.45
7982.71
7981.88
7980.97
7980
7978.96
7977.86
7976.7
7975.49
7974.22
7972.9
7971.54
7970.14
7968.71
7967.25
7965.76
7964.24
7962.71
7961.15
7959.57
7957.99
7956.39
7954.78
7953.17
7951.56
7949.95
7948.34
7946.73
7945.13
7943.54
7941.96
7940.39
7938.83
7937.28
7935.75
7934.23
7932.73
7931.24
7929.78
7928.33
7926.9
7925.49
7924.1
7922.73
7921.38
7920.05
7918.75
7917.46
7916.2
7914.96
7913.74
7912.54
7911.36
7910.2
7909.06
7907.95
7906.86
7905.78
7904.73
7903.7
7902.69
7901.7
7900.72
7899.77
7898.84
7897.92
7897.03
7896.14
7895.28
7894.43
7893.6
7892.79
7891.99
7891.21
7890.44
7889.68
7888.94
7888.22
7887.51
7886.81
7886.13
7885.45
7884.79
7884.13
7883.5
7882.85
7882.24
7881.65
7881.06
7880.44
7879.88
7879.2
7878.66
7878.27
7877.75
7877.29
7876.78
7876.3
7875.8
7875.35
7874.86
7874.41
7873.93
7873.48
7873.02
7872.57
7872.11
7871.66
7871.17
7870.73
7870.35
7869.91
7869.5
7869.05
7868.64
7868.18
7867.76
7867.32
7866.9
7866.46
7866.04
7865.6
7865.18
7864.73
7864.31
7863.92
7863.48
7863.12
7862.63
7862.24
7861.56
7861.23
7860.95
7860.6
7860.23
7859.85
7859.48
7859.11
7858.76
7858.4
7858.05
7857.7
7857.35
7857
7856.65
7856.3
7855.95
7855.59
7855.24
7854.88
7854.53
7854.17
7853.8
7853.44
7853.07
7852.71
7852.34
7851.97
7851.59
7851.22
7850.84
7850.47
7850.09
7849.71
7849.33
7848.95
7848.57
7848.18
7847.8
7847.42
7847.03
7846.65
7846.26
7845.87
7845.49
7845.1
7844.71
7844.32
7843.94
7843.55
7843.16
7842.77
7842.38
7841.99
7841.6
7841.2
7840.81
7840.42
7840.03
7839.64
7839.25
7838.85
7838.46
7838.07
7837.67
7837.28
7836.89
7836.49
7836.1
7835.7
7835.31
7834.91
7834.52
7834.12
7833.72
7833.33
7832.93
7832.53
7832.14
7831.74
7831.34
7830.94
7830.54
7830.14
7829.74
7829.34
7828.94
7828.54
7828.14
7827.73
7827.33
7826.93
7826.54
7826
8939.27
8936.91
8934.43
8931.22
8927.65
8924.18
8920.93
8917.53
8913.97
8910.46
8907.08
8903.71
8900.13
8896.62
8893.16
8889.74
8886.38
8882.99
8879.62
8876.23
8872.83
8869.4
8865.93
8862.42
8858.9
8855.36
8851.79
8848.2
8844.58
8840.96
8837.29
8833.55
8829.78
8826.04
8822.31
8818.53
8814.69
8810.83
8806.9
8802.95
8798.98
8795
8790.98
8786.91
8782.79
8778.65
8774.45
8770.24
8766.02
8761.59
8757.21
8752.89
8748.57
8744.16
8739.69
8735.11
8730.51
8725.92
8721.3
8716.58
8711.77
8706.68
8701.45
8696.72
8692.18
8687.36
8682.33
8677.26
8672.13
8666.93
8661.61
8655.99
8650.63
8645.33
8639.75
8633.97
8627.99
8621.51
8615.28
8609.03
8602.44
8595.65
8588.86
8581.94
8574.73
8567.35
8560.01
8552.85
8545.57
8537.74
8529.37
8521.1
8518.02
8518.5
8501.29
8457.8
8472.14
8464.78
8451.29
8442.48
8432.01
8416.99
8407.25
8395.2
8383.03
8370.9
8358.35
8345.72
8333.19
8320.54
8305.76
8291.35
8277.21
8263.5
8259.25
8240.86
8209.09
8188.69
8168.85
8149.56
8130.87
8109.98
8087.79
8065.26
8042.9
8020.75
7998.12
7974.25
7950.75
7927.35
7903.94
7886.35
7861.75
7830.82
7806.15
7781.91
7759.45
7736.24
7714.01
7691.59
7669.24
7647.61
7626.58
7605.95
7586.11
7567.03
7548.49
7530.5
7513.39
7497.02
7481.25
7466.02
7451.65
7438.1
7425.16
7412.81
7401.08
7389.97
7379.43
7369.41
7359.96
7351.11
7342.69
7334.67
7327.06
7319.77
7312.89
7306.45
7300.36
7294.59
7289.15
7284.06
7279.29
7275.01
7271.25
7267.85
7264.89
7262.37
7260.25
7258.66
7257.7
7257.19
7257.09
7257.47
7258.3
7259.52
7261.23
7263.57
7266.23
7269.3
7272.76
7276.58
7280.73
7285.38
7290.43
7295.74
7301.36
7307.24
7313.46
7320.03
7326.8
7333.82
7341.02
7348.45
7356.13
7364.06
7372.18
7380.39
7388.76
7397.2
7405.8
7414.57
7423.53
7432.49
7441.52
7450.58
7459.68
7468.88
7478.14
7487.45
7496.74
7506
7515.23
7524.51
7533.79
7543.09
7552.3
7561.46
7570.56
7579.55
7588.54
7597.47
7606.34
7615.22
7623.96
7632.59
7641.14
7649.59
7657.91
7666.17
7674.42
7682.51
7690.47
7698.3
7706.07
7713.75
7721.32
7728.84
7736.2
7743.44
7750.56
7757.54
7764.44
7771.24
7777.94
7784.56
7791.03
7797.34
7803.56
7809.7
7815.75
7821.65
7827.41
7833.07
7838.63
7844.09
7849.41
7854.6
7859.72
7864.71
7869.56
7874.29
7878.93
7883.49
7887.93
7892.24
7896.44
7900.51
7904.49
7908.37
7912.17
7915.85
7919.44
7922.92
7926.28
7929.54
7932.74
7935.86
7938.89
7941.8
7944.63
7947.39
7950.07
7952.68
7955.21
7957.66
7960.03
7962.3
7964.5
7966.64
7968.69
7970.63
7972.46
7974.21
7975.87
7977.42
7978.85
7980.16
7981.38
7982.49
7983.48
7984.34
7985.09
7985.73
7986.26
7986.67
7986.96
7987.14
7987.23
7987.19
7987.05
7986.81
7986.48
7986.05
7985.52
7984.89
7984.19
7983.41
7982.55
7981.62
7980.61
7979.54
7978.41
7977.22
7975.97
7974.67
7973.33
7971.94
7970.52
7969.06
7967.57
7966.05
7964.51
7962.94
7961.36
7959.77
7958.16
7956.54
7954.91
7953.28
7951.65
7950.02
7948.4
7946.77
7945.16
7943.55
7941.95
7940.37
7938.8
7937.24
7935.7
7934.17
7932.66
7931.17
7929.7
7928.24
7926.81
7925.4
7924
7922.63
7921.27
7919.94
7918.64
7917.35
7916.09
7914.84
7913.62
7912.43
7911.25
7910.09
7908.96
7907.84
7906.75
7905.68
7904.63
7903.6
7902.59
7901.6
7900.63
7899.68
7898.75
7897.83
7896.94
7896.06
7895.2
7894.35
7893.52
7892.71
7891.91
7891.13
7890.36
7889.61
7888.87
7888.15
7887.44
7886.73
7886.05
7885.37
7884.72
7884.1
7883.47
7882.87
7882.2
7881.62
7880.9
7880.34
7879.92
7879.39
7878.91
7878.38
7877.87
7877.36
7876.89
7876.38
7875.91
7875.42
7874.95
7874.48
7874.02
7873.54
7873.08
7872.58
7872.13
7871.75
7871.3
7870.89
7870.44
7870.02
7869.56
7869.13
7868.68
7868.26
7867.81
7867.39
7866.93
7866.52
7866.03
7865.63
7865.19
7864.79
7864.33
7863.93
7863.26
7862.93
7862.65
7862.3
7861.93
7861.54
7861.15
7860.76
7860.38
7860.01
7859.64
7859.27
7858.9
7858.54
7858.18
7857.82
7857.46
7857.1
7856.74
7856.38
7856.02
7855.66
7855.3
7854.94
7854.58
7854.21
7853.84
7853.48
7853.11
7852.73
7852.36
7851.99
7851.61
7851.24
7850.86
7850.48
7850.1
7849.72
7849.34
7848.96
7848.58
7848.19
7847.81
7847.43
7847.04
7846.65
7846.27
7845.88
7845.49
7845.11
7844.72
7844.33
7843.94
7843.55
7843.16
7842.77
7842.38
7841.99
7841.6
7841.21
7840.82
7840.42
7840.03
7839.64
7839.25
7838.86
7838.46
7838.07
7837.68
7837.28
7836.89
7836.49
7836.1
7835.71
7835.31
7834.92
7834.52
7834.12
7833.73
7833.33
7832.94
7832.54
7832.14
7831.74
7831.35
7830.95
7830.55
7830.15
7829.75
7829.35
7828.95
7828.54
7828.14
7827.74
7827.34
7826.94
7826.55
7826
8939.06
8936.71
8934.23
8931.03
8927.48
8924.02
8920.78
8917.39
8913.87
8910.4
8907.1
8903.77
8900.17
8896.74
8893.35
8889.95
8886.57
8883.19
8879.82
8876.43
8873.03
8869.59
8866.13
8862.63
8859.13
8855.6
8852.06
8848.48
8844.88
8841.27
8837.62
8833.92
8830.23
8826.47
8822.68
8818.87
8815.08
8811.25
8807.27
8803.33
8799.43
8795.49
8791.47
8787.31
8783.15
8779.05
8774.99
8770.77
8766.53
8761.67
8756.97
8753.14
8749.1
8744.72
8740.24
8735.68
8731.08
8726.46
8721.78
8717.04
8712.22
8707.36
8702.28
8696.96
8692.03
8687.26
8682.31
8677.15
8671.9
8666.58
8661.13
8655.3
8649.56
8644.15
8638.52
8632.59
8626.49
8620.2
8613.69
8606.81
8600.02
8593.26
8586.47
8579.34
8571.91
8564.35
8557.02
8549.67
8541.88
8533.69
8525.64
8517.66
8509.23
8500.14
8490.85
8487.08
8487.05
8469.03
8424.23
8438.1
8430.27
8415.15
8405.24
8393.32
8377.26
8366.45
8353.38
8340
8327.01
8313.78
8299.96
8286.23
8272.06
8255.45
8239.41
8223.51
8208.57
8203.18
8183.26
8149.02
8126.85
8105.44
8084.54
8064.43
8042.14
8018.46
7994.71
7971.23
7947.9
7924.51
7900.08
7876.42
7851.39
7828.37
7806.06
7787.47
7764.01
7734.78
7711.07
7688.92
7666.71
7645.2
7623.87
7602.69
7582.39
7562.89
7544.21
7526.22
7508.82
7492.13
7476.08
7460.82
7446.3
7432.51
7419.33
7406.78
7394.8
7383.66
7373.06
7362.98
7353.44
7344.43
7335.9
7327.82
7320.2
7313.01
7306.18
7299.75
7293.68
7287.97
7282.6
7277.6
7273.05
7268.94
7265.21
7261.91
7259.06
7256.62
7254.6
7253.3
7252.42
7251.97
7251.99
7252.49
7253.44
7254.76
7256.6
7259.04
7261.91
7265.12
7268.73
7272.69
7276.96
7281.7
7286.88
7292.42
7298.18
7304.26
7310.56
7317.11
7324.01
7331.26
7338.67
7346.26
7354
7362.09
7370.31
7378.64
7387.07
7395.62
7404.37
7413.28
7422.33
7431.39
7440.51
7449.71
7458.92
7468.15
7477.47
7486.88
7496.25
7505.62
7514.92
7524.23
7533.6
7542.95
7552.21
7561.42
7570.58
7579.69
7588.68
7597.62
7606.54
7615.45
7624.21
7632.88
7641.46
7649.94
7658.29
7666.57
7674.82
7682.92
7690.92
7698.78
7706.52
7714.19
7721.82
7729.32
7736.68
7743.93
7751.04
7758.02
7764.93
7771.76
7778.5
7785.08
7791.55
7797.89
7804.09
7810.23
7816.28
7822.19
7827.97
7833.62
7839.15
7844.63
7849.99
7855.22
7860.33
7865.32
7870.17
7874.92
7879.59
7884.17
7888.62
7892.95
7897.17
7901.28
7905.26
7909.16
7912.99
7916.7
7920.31
7923.81
7927.22
7930.5
7933.74
7936.89
7939.93
7942.88
7945.73
7948.53
7951.26
7953.89
7956.43
7958.9
7961.28
7963.57
7965.8
7967.95
7969.99
7971.95
7973.8
7975.55
7977.21
7978.76
7980.19
7981.5
7982.71
7983.81
7984.79
7985.64
7986.38
7987.01
7987.52
7987.91
7988.18
7988.34
7988.4
7988.34
7988.17
7987.89
7987.53
7987.06
7986.49
7985.84
7985.1
7984.27
7983.37
7982.39
7981.35
7980.24
7979.07
7977.84
7976.56
7975.22
7973.85
7972.43
7970.97
7969.47
7967.95
7966.4
7964.82
7963.23
7961.62
7959.99
7958.36
7956.71
7955.06
7953.41
7951.76
7950.11
7948.46
7946.82
7945.19
7943.56
7941.95
7940.35
7938.77
7937.19
7935.64
7934.1
7932.58
7931.08
7929.6
7928.14
7926.7
7925.28
7923.88
7922.5
7921.15
7919.81
7918.51
7917.22
7915.95
7914.71
7913.49
7912.29
7911.12
7909.96
7908.83
7907.71
7906.62
7905.56
7904.51
7903.48
7902.47
7901.49
7900.52
7899.57
7898.64
7897.73
7896.83