/*--------------------------------*- C++ -*----------------------------------*\
| =========                 |                                                 |
| \\      /  F ield         | OpenFOAM: The Open Source CFD Toolbox           |
|  \\    /   O peration     | Version:  v2006                                 |
|   \\  /    A nd           | Website:  www.openfoam.com                      |
|    \\/     M anipulation  |                                                 |
\*---------------------------------------------------------------------------*/
FoamFile
{
    version     2.0;
    format      ascii;
    class       volVectorField;
    location    "4.8";
    object      U;
}
// * * * * * * * * * * * * * * * * * * * * * * * * * * * * * * * * * * * * * //

dimensions      [0 1 -1 0 0 0 0];


internalField   nonuniform List<vector> 
33000
(
(0.212036 0 -0.00142073)
(0.210488 0 -0.0014638)
(0.208644 0 -0.00088117)
(0.209661 0 -0.000775032)
(0.2113 0 0.000729697)
(0.210874 0 0.00182904)
(0.210292 0 0.00169129)
(0.210672 0 0.000601913)
(0.215155 0 -0.00511817)
(0.232849 0 -0.0213718)
(0.259362 0 -0.0358679)
(0.291337 0 -0.0451273)
(0.327518 0 -0.0511456)
(0.361391 0 -0.0456976)
(0.381728 0 -0.0248259)
(0.379624 0 0.00376832)
(0.360637 0 0.0257856)
(0.335556 0 0.0323661)
(0.312491 0 0.026532)
(0.295157 0 0.0167268)
(0.284644 0 0.00931693)
(0.278672 0 0.00576364)
(0.274058 0 0.00433505)
(0.2704 0 0.00367659)
(0.267314 0 0.00290181)
(0.265212 0 0.00155838)
(0.26436 0 0.000391267)
(0.264434 0 2.32481e-05)
(0.264619 0 0.000203812)
(0.264422 0 0.00122892)
(0.262867 0 0.00212924)
(0.261184 0 0.00125144)
(0.260434 0 0.000285934)
(0.260394 0 0.000152408)
(0.260331 0 0.000776097)
(0.259169 0 0.00158913)
(0.257991 0 0.000878824)
(0.257925 0 -0.000109362)
(0.258393 0 -0.00038445)
(0.258879 0 1.74965e-05)
(0.258613 0 0.00128843)
(0.256867 0 0.00189277)
(0.255402 0 0.00082611)
(0.255267 0 -9.71167e-05)
(0.25562 0 -0.000265205)
(0.256021 0 0.000107695)
(0.255776 0 0.000862356)
(0.254598 0 0.00113275)
(0.253572 0 0.000422379)
(0.253529 0 -4.58742e-05)
(0.253704 0 -5.90692e-06)
(0.253679 0 0.00018541)
(0.253142 0 0.000477119)
(0.253038 0 0.000298401)
(0.253049 0 0.000104225)
(0.253091 0 0.000214181)
(0.252795 0 0.00094034)
(0.250869 0 0.00230494)
(0.248094 0 0.00227373)
(0.246571 0 0.00121792)
(0.245743 0 0.000768165)
(0.244665 0 0.00108164)
(0.242951 0 0.00155173)
(0.240784 0 0.00138932)
(0.23961 0 0.000366172)
(0.239857 0 -0.000779402)
(0.240788 0 -0.00133838)
(0.241533 0 -0.00141655)
(0.241754 0 -0.00135511)
(0.241654 0 -0.0013064)
(0.241482 0 -0.00151983)
(0.241818 0 -0.00239818)
(0.242913 0 -0.00300692)
(0.243477 0 -0.00226475)
(0.244132 0 0.00125917)
(0.238226 0 0.00578544)
(0.239978 0 0.0185368)
(0.221213 0 0.0358186)
(0.155034 0 0.0298519)
(0.155418 0 0.0137396)
(0.12508 0 0.00570873)
(0.115774 0 -0.0107997)
(0.11142 0 -0.000289384)
(0.104685 0 -0.00099075)
(0.107224 0 0.000109746)
(0.109298 0 -0.000321934)
(0.107327 0 -0.000215862)
(0.106271 0 -0.000720526)
(0.106653 0 -0.00196384)
(0.106704 0 -0.000758882)
(0.106261 0 -0.000631637)
(0.106459 0 -0.000420312)
(0.106396 0 8.98316e-05)
(0.105673 0 0.000303287)
(0.105374 0 0.00055134)
(0.103771 0 0.000695527)
(0.103469 0 0.00221551)
(0.0983105 0 0.00339385)
(0.0987369 0 0.0109763)
(0.0813266 0 0.0117461)
(0.0747422 0 0.00686799)
(0.0660978 0 -0.00344832)
(0.0657694 0 -0.00863162)
(0.065521 0 -0.00474161)
(0.0657195 0 -0.000671904)
(0.0679906 0 0.00187299)
(0.0695684 0 0.00149922)
(0.0700147 0 0.000904254)
(0.0699158 0 -0.000674789)
(0.070165 0 -0.00152557)
(0.0704992 0 -0.00129353)
(0.0706028 0 -0.000664622)
(0.0709581 0 0.000157278)
(0.0705614 0 0.000588152)
(0.070526 0 0.00162341)
(0.0678738 0 0.00216434)
(0.0681391 0 0.00556557)
(0.0587833 0 0.00548657)
(0.0571537 0 0.00211739)
(0.0542205 0 -0.00259136)
(0.0552626 0 -0.00411009)
(0.0554588 0 -0.00165907)
(0.0555995 0 4.88033e-07)
(0.0567284 0 0.00066733)
(0.0572912 0 0.000484891)
(0.0573247 0 -0.000106351)
(0.0573995 0 -0.000410725)
(0.0573965 0 -0.000222422)
(0.0572841 0 6.24872e-05)
(0.0572186 0 0.000184784)
(0.057055 0 0.00025704)
(0.0567458 0 0.000267978)
(0.056363 0 0.00032041)
(0.0558894 0 0.000397294)
(0.0553408 0 0.000461716)
(0.05472 0 0.000540216)
(0.054029 0 0.000587717)
(0.0532739 0 0.000648113)
(0.052435 0 0.00069763)
(0.0515239 0 0.00076481)
(0.0505301 0 0.000804086)
(0.0494759 0 0.000861542)
(0.0483443 0 0.00092652)
(0.0471203 0 0.00101081)
(0.0458073 0 0.001058)
(0.0444321 0 0.00110434)
(0.0429919 0 0.00116576)
(0.041454 0 0.0012472)
(0.0398225 0 0.00132253)
(0.0380978 0 0.00138439)
(0.0363228 0 0.00141045)
(0.034498 0 0.00146284)
(0.0325919 0 0.00152163)
(0.030605 0 0.00158658)
(0.0285466 0 0.00164831)
(0.0264318 0 0.00168478)
(0.0242869 0 0.00169662)
(0.0221127 0 0.0017334)
(0.0198771 0 0.00176784)
(0.017626 0 0.00177134)
(0.0153834 0 0.00176842)
(0.0131422 0 0.00177078)
(0.0108955 0 0.0017745)
(0.00865536 0 0.00174751)
(0.00647573 0 0.00169644)
(0.00435982 0 0.00165445)
(0.00228619 0 0.00162131)
(0.000251392 0 0.00157048)
(-0.00169698 0 0.00148921)
(-0.00354196 0 0.0014204)
(-0.0053171 0 0.00136978)
(-0.00703857 0 0.00132912)
(-0.00870545 0 0.00128665)
(-0.0103112 0 0.00123044)
(-0.0118355 0 0.00116375)
(-0.0132838 0 0.00111661)
(-0.0146852 0 0.00107994)
(-0.0160397 0 0.00104274)
(-0.0173405 0 0.00100224)
(-0.018583 0 0.00095358)
(-0.0197664 0 0.00090635)
(-0.0208989 0 0.000871223)
(-0.0219916 0 0.000840722)
(-0.0230372 0 0.000797285)
(-0.0240169 0 0.00074384)
(-0.0249379 0 0.000709208)
(-0.0258275 0 0.000687486)
(-0.0266803 0 0.000655399)
(-0.0274896 0 0.000619049)
(-0.0282553 0 0.000580201)
(-0.0289735 0 0.000545391)
(-0.0296501 0 0.000513763)
(-0.0302859 0 0.000486609)
(-0.0308872 0 0.000462737)
(-0.0314549 0 0.000434409)
(-0.0319861 0 0.000404498)
(-0.0324836 0 0.000375944)
(-0.0329458 0 0.00034654)
(-0.0333685 0 0.000316965)
(-0.0337544 0 0.000291805)
(-0.0341132 0 0.000273628)
(-0.0344522 0 0.000257998)
(-0.0347666 0 0.000237182)
(-0.035051 0 0.00021256)
(-0.0353014 0 0.000183005)
(-0.0355191 0 0.000160174)
(-0.035713 0 0.000143387)
(-0.0358881 0 0.000129276)
(-0.0360431 0 0.000113583)
(-0.0361752 0 9.38777e-05)
(-0.0362779 0 7.00534e-05)
(-0.0363556 0 5.39283e-05)
(-0.0364188 0 4.57812e-05)
(-0.0364734 0 3.64671e-05)
(-0.0365051 0 1.35346e-05)
(-0.0365065 0 -8.93282e-06)
(-0.0364852 0 -2.50963e-05)
(-0.0364462 0 -3.60388e-05)
(-0.036396 0 -4.00443e-05)
(-0.0363402 0 -4.73068e-05)
(-0.0362697 0 -6.35903e-05)
(-0.0361771 0 -8.28751e-05)
(-0.0360608 0 -0.000100047)
(-0.0359255 0 -0.000111869)
(-0.0357792 0 -0.000117755)
(-0.0356271 0 -0.000119948)
(-0.0354686 0 -0.000130263)
(-0.035292 0 -0.000145545)
(-0.0350998 0 -0.000156509)
(-0.0348939 0 -0.000168698)
(-0.034672 0 -0.000180178)
(-0.0344389 0 -0.000183542)
(-0.0342042 0 -0.000184464)
(-0.0339647 0 -0.000195255)
(-0.0337067 0 -0.000208085)
(-0.0334371 0 -0.000215753)
(-0.033157 0 -0.000225528)
(-0.0328632 0 -0.000232037)
(-0.0325648 0 -0.000234266)
(-0.0322624 0 -0.000241753)
(-0.031948 0 -0.000254039)
(-0.0316219 0 -0.000260728)
(-0.0312908 0 -0.000261093)
(-0.0309575 0 -0.000264121)
(-0.0306122 0 -0.000275887)
(-0.0302529 0 -0.000289118)
(-0.0298794 0 -0.000296992)
(-0.0295018 0 -0.000292805)
(-0.0291291 0 -0.00029519)
(-0.0287447 0 -0.000310283)
(-0.0283425 0 -0.000322414)
(-0.0279276 0 -0.000327912)
(-0.027508 0 -0.000331483)
(-0.0270834 0 -0.00034037)
(-0.0266444 0 -0.000347987)
(-0.0262005 0 -0.000349776)
(-0.0257485 0 -0.00036119)
(-0.0252782 0 -0.000372196)
(-0.0248015 0 -0.000380166)
(-0.0243111 0 -0.000391267)
(-0.0238113 0 -0.000395814)
(-0.0233076 0 -0.000399823)
(-0.0227886 0 -0.000412273)
(-0.0222533 0 -0.000426868)
(-0.0217022 0 -0.000439467)
(-0.0211384 0 -0.000445764)
(-0.0205728 0 -0.000446978)
(-0.0200016 0 -0.00045039)
(-0.0194212 0 -0.0004621)
(-0.0188216 0 -0.000480395)
(-0.0181997 0 -0.000494714)
(-0.0175662 0 -0.000504156)
(-0.0169216 0 -0.000506623)
(-0.0162775 0 -0.000505163)
(-0.015628 0 -0.000515801)
(-0.0149628 0 -0.000528985)
(-0.0142844 0 -0.000539155)
(-0.0135952 0 -0.000543863)
(-0.0129014 0 -0.000548521)
(-0.0121971 0 -0.000557732)
(-0.0114826 0 -0.000566663)
(-0.010758 0 -0.000567226)
(-0.0100401 0 -0.000563266)
(-0.00932159 0 -0.000568506)
(-0.00859354 0 -0.000574334)
(-0.00786023 0 -0.00058047)
(-0.00711849 0 -0.000583643)
(-0.00637865 0 -0.000582656)
(-0.00563881 0 -0.000578535)
(-0.00490824 0 -0.000570498)
(-0.00418468 0 -0.000568194)
(-0.0034618 0 -0.000567494)
(-0.00274222 0 -0.000565372)
(-0.00202704 0 -0.000561252)
(-0.00131921 0 -0.000550999)
(-0.000629283 0 -0.000535689)
(4.59998e-05 0 -0.000526722)
(0.000713292 0 -0.000517975)
(0.00136506 0 -0.000509051)
(0.00200671 0 -0.00050045)
(0.00263602 0 -0.000486773)
(0.00324673 0 -0.00047312)
(0.00384496 0 -0.000463721)
(0.00442892 0 -0.000454611)
(0.00500146 0 -0.000445324)
(0.00555981 0 -0.000430939)
(0.00610073 0 -0.000418861)
(0.00662842 0 -0.000408862)
(0.00714241 0 -0.000399317)
(0.00764398 0 -0.000388136)
(0.00812906 0 -0.000374614)
(0.00859767 0 -0.000360873)
(0.00904984 0 -0.000349233)
(0.00948793 0 -0.000339397)
(0.00991315 0 -0.000327958)
(0.010322 0 -0.000314214)
(0.0107141 0 -0.000301547)
(0.0110908 0 -0.000290052)
(0.0114525 0 -0.000278815)
(0.0117995 0 -0.000266358)
(0.0121299 0 -0.000252631)
(0.0124437 0 -0.000239967)
(0.0127422 0 -0.000228882)
(0.0130266 0 -0.000217643)
(0.0132954 0 -0.000205002)
(0.0135478 0 -0.000191836)
(0.0137844 0 -0.00018004)
(0.0140071 0 -0.00016945)
(0.014216 0 -0.000158165)
(0.0144096 0 -0.000146197)
(0.0145881 0 -0.000134196)
(0.0147514 0 -0.00012237)
(0.0149006 0 -0.000111811)
(0.0150368 0 -0.000101941)
(0.0151603 0 -9.20147e-05)
(0.0152708 0 -8.18282e-05)
(0.0153683 0 -7.1544e-05)
(0.0154527 0 -6.14217e-05)
(0.0155246 0 -5.19662e-05)
(0.0155849 0 -4.33634e-05)
(0.0156343 0 -3.48763e-05)
(0.0156728 0 -2.61823e-05)
(0.0157003 0 -1.73653e-05)
(0.0157166 0 -8.50432e-06)
(0.0157222 0 -8.83929e-07)
(0.015719 0 5.76579e-06)
(0.0157071 0 1.24705e-05)
(0.0156864 0 1.96265e-05)
(0.0156564 0 2.68984e-05)
(0.0156177 0 3.33687e-05)
(0.0155714 0 3.88735e-05)
(0.0155184 0 4.41885e-05)
(0.0154582 0 4.99421e-05)
(0.0153907 0 5.56755e-05)
(0.0153164 0 6.05229e-05)
(0.0152365 0 6.4658e-05)
(0.0151513 0 6.90343e-05)
(0.0150603 0 7.37211e-05)
(0.0149637 0 7.768e-05)
(0.0148627 0 8.09063e-05)
(0.0147574 0 8.41738e-05)
(0.0146479 0 8.75283e-05)
(0.0145342 0 9.08246e-05)
(0.0144166 0 9.37389e-05)
(0.0142957 0 9.61656e-05)
(0.0141718 0 9.83349e-05)
(0.0140452 0 0.000100473)
(0.0139158 0 0.00010267)
(0.0137837 0 0.000104736)
(0.0136492 0 0.000106631)
(0.0135126 0 0.000108072)
(0.0133745 0 0.000109074)
(0.0132351 0 0.000110148)
(0.0130942 0 0.000111365)
(0.0129518 0 0.000112218)
(0.0128086 0 0.00011291)
(0.0126646 0 0.000113648)
(0.0125196 0 0.000114439)
(0.0123738 0 0.000115216)
(0.0122272 0 0.000115452)
(0.0120804 0 0.00011546)
(0.0119338 0 0.00011527)
(0.0117872 0 0.000115549)
(0.0116406 0 0.000115533)
(0.0114939 0 0.000115853)
(0.0113471 0 0.000115595)
(0.0112007 0 0.00011561)
(0.0110545 0 0.000114766)
(0.0109093 0 0.000114377)
(0.0107647 0 0.000113966)
(0.0106199 0 0.000114256)
(0.0104757 0 0.000112883)
(0.010333 0 0.000112045)
(0.0101913 0 0.000111587)
(0.0100491 0 0.000111322)
(0.00990865 0 0.000110176)
(0.00976869 0 0.000109824)
(0.00962945 0 0.000109466)
(0.00949062 0 0.000108448)
(0.00935318 0 0.000107668)
(0.00921679 0 0.000106139)
(0.00908179 0 0.00010574)
(0.00894797 0 0.000104013)
(0.00881488 0 0.000104397)
(0.00868313 0 0.000102077)
(0.00855231 0 0.000102755)
(0.00842307 0 9.95888e-05)
(0.00829543 0 9.93574e-05)
(0.0081702 0 9.61566e-05)
(0.00804534 0 9.58888e-05)
(0.00792279 0 9.42908e-05)
(0.00780004 0 9.32211e-05)
(0.00768041 0 9.38621e-05)
(0.00755983 0 9.15557e-05)
(0.00744414 0 9.3124e-05)
(0.00732574 0 8.86717e-05)
(0.00720969 0 9.0478e-05)
(0.00709425 0 8.4847e-05)
(0.00697718 0 9.48859e-05)
(0.0068619 0 8.80034e-05)
(0.00675963 0 0.000100489)
(0.006643 0 8.63781e-05)
(0.0065349 0 7.88613e-05)
(0.00642918 0 6.15606e-05)
(0.00628299 0 9.25756e-05)
(0.00617104 0 9.0314e-05)
(0.00611469 0 0.000174479)
(0.00596249 0 0.000140882)
(0.00594791 0 3.16111e-05)
(0.00582425 0 -4.57496e-05)
(0.00594536 0 -3.18055e-05)
(0.00581243 0 4.62939e-05)
(0.00579912 0 3.74048e-05)
(0.00569993 0 6.44319e-05)
(0.00563346 0 6.04351e-05)
(0.00554208 0 7.70767e-05)
(0.00545426 0 6.74275e-05)
(0.0053629 0 7.82622e-05)
(0.00526759 0 6.75124e-05)
(0.00517432 0 7.53859e-05)
(0.00507597 0 7.55057e-05)
(0.00497957 0 8.17244e-05)
(0.00489187 0 8.33895e-05)
(0.00479303 0 7.06278e-05)
(0.00469561 0 5.24987e-05)
(0.00460645 0 4.57793e-05)
(0.00447915 0 8.90859e-05)
(0.00435606 0 0.000109803)
(0.00419043 0 0.000154215)
(0.00406299 0 9.85108e-05)
(0.00392386 0 0.000120991)
(0.00381732 0 8.89944e-05)
(0.00369246 0 0.000104681)
(0.00359482 0 8.62793e-05)
(0.00347834 0 7.59068e-05)
(0.00338508 0 7.83244e-05)
(0.00327858 0 5.05709e-05)
(0.00316941 0 9.37973e-05)
(0.00306416 0 5.46764e-05)
(0.00299149 0 0.000140169)
(0.00285739 0 6.67222e-05)
(0.00279905 0 8.37324e-05)
(0.00269132 0 -2.00578e-05)
(0.00244643 0 6.46717e-05)
(0.00239029 0 -4.64121e-07)
(0.00234815 0 0.000436116)
(0.00203886 0 0.000242717)
(0.00239787 0 9.53446e-05)
(0.00196426 0 -0.000275428)
(0.00353285 0 -0.000765615)
(0.0034916 0 -0.000312852)
(0.0038391 0 -0.000183198)
(0.00399308 0 -0.000116654)
(0.0040542 0 -5.66751e-05)
(0.00409684 0 -2.10904e-05)
(0.00409407 0 4.88901e-06)
(0.0040714 0 2.37612e-05)
(0.00403096 0 3.71096e-05)
(0.00397665 0 4.70777e-05)
(0.00391225 0 5.46042e-05)
(0.00383955 0 6.03796e-05)
(0.00376053 0 6.49233e-05)
(0.00367624 0 6.86448e-05)
(0.00358739 0 7.19687e-05)
(0.0034945 0 7.49218e-05)
(0.00339821 0 7.73644e-05)
(0.00329919 0 7.9258e-05)
(0.00319803 0 8.07641e-05)
(0.00309512 0 8.20054e-05)
(0.00299065 0 8.31226e-05)
(0.00288471 0 8.41399e-05)
(0.00277743 0 8.50783e-05)
(0.00266899 0 8.59047e-05)
(0.00255962 0 8.64917e-05)
(0.0024499 0 8.62045e-05)
(0.00233981 0 8.68325e-05)
(0.0022292 0 8.72674e-05)
(0.00211847 0 8.72132e-05)
(0.00200783 0 8.69974e-05)
(0.00189753 0 8.65476e-05)
(0.00178786 0 8.58894e-05)
(0.00167896 0 8.51565e-05)
(0.00157082 0 8.44739e-05)
(0.00146333 0 8.39199e-05)
(0.00135632 0 8.35497e-05)
(0.00124955 0 8.36221e-05)
(0.00114261 0 8.41878e-05)
(0.0010357 0 8.36243e-05)
(0.000928899 0 8.3749e-05)
(0.000821876 0 8.40649e-05)
(0.000714516 0 8.4427e-05)
(0.000606716 0 8.48606e-05)
(0.000498386 0 8.5338e-05)
(0.000389556 0 8.57655e-05)
(0.000280407 0 8.60193e-05)
(0.000171198 0 8.60037e-05)
(6.22107e-05 0 8.57116e-05)
(-4.63015e-05 0 8.51809e-05)
(-0.000154135 0 8.4492e-05)
(-0.000261163 0 8.37532e-05)
(-0.000367425 0 8.3153e-05)
(-0.000473229 0 8.29308e-05)
(-0.0005791 0 8.32408e-05)
(-0.000685559 0 8.39156e-05)
(-0.000792659 0 8.43918e-05)
(-0.000899756 0 8.41887e-05)
(-0.00100594 0 8.30795e-05)
(-0.00111086 0 8.18813e-05)
(-0.00121545 0 8.20474e-05)
(-0.00132116 0 8.31977e-05)
(-0.0014287 0 8.48904e-05)
(-0.00153731 0 8.6136e-05)
(-0.0016449 0 8.45894e-05)
(-0.00175052 0 8.26344e-05)
(-0.00185579 0 8.26746e-05)
(-0.00196256 0 8.41698e-05)
(-0.00207052 0 8.53743e-05)
(-0.00217714 0 8.35025e-05)
(-0.00228099 0 8.07988e-05)
(-0.00238418 0 8.06974e-05)
(-0.00248858 0 8.19125e-05)
(-0.00259272 0 8.13463e-05)
(-0.00269493 0 7.88717e-05)
(-0.00279457 0 7.88215e-05)
(-0.0028909 0 8.19513e-05)
(-0.00302079 0 8.42475e-05)
(-0.00318559 0 8.50198e-05)
(-0.0030296 0 8.92232e-05)
(-0.00327012 0 9.64299e-05)
(-0.00425319 0 0.000109577)
(0.212325 0 -0.00436506)
(0.210568 0 -0.00441223)
(0.20936 0 -0.00309226)
(0.210434 0 -0.00260516)
(0.213005 0 -0.000819041)
(0.215494 0 0.000129702)
(0.217151 0 -0.00142628)
(0.219944 0 -0.00879393)
(0.232642 0 -0.0325297)
(0.252027 0 -0.0546444)
(0.270232 0 -0.066364)
(0.285642 0 -0.0703452)
(0.296705 0 -0.0637553)
(0.300583 0 -0.0444496)
(0.296974 0 -0.00821157)
(0.292305 0 0.0215337)
(0.289952 0 0.0371287)
(0.288557 0 0.0407866)
(0.286918 0 0.0387541)
(0.282624 0 0.0282869)
(0.278509 0 0.0176608)
(0.27479 0 0.0118513)
(0.271307 0 0.00936749)
(0.268692 0 0.00724341)
(0.26691 0 0.00552169)
(0.265593 0 0.00342596)
(0.264208 0 0.000915572)
(0.263055 0 -0.000239853)
(0.262849 0 -0.000138741)
(0.26234 0 0.00152568)
(0.262107 0 0.00286506)
(0.261911 0 0.00272072)
(0.260527 0 0.00105424)
(0.259488 0 0.000263644)
(0.258975 0 0.000966765)
(0.258775 0 0.00171786)
(0.258733 0 0.00147087)
(0.258283 0 -0.000273631)
(0.258359 0 -0.00104721)
(0.258437 0 -0.000559542)
(0.258046 0 0.00186919)
(0.257786 0 0.00286988)
(0.257374 0 0.00219756)
(0.256641 0 -0.000263988)
(0.256723 0 -0.000966033)
(0.256977 0 -0.000512111)
(0.256585 0 0.00155433)
(0.255863 0 0.00234911)
(0.254997 0 0.00143532)
(0.254057 0 -9.8643e-05)
(0.254016 0 -0.000187318)
(0.253533 0 0.000394846)
(0.252795 0 0.000582779)
(0.252593 0 3.71229e-05)
(0.25236 0 -9.21314e-05)
(0.252086 0 0.000366888)
(0.250958 0 0.00257428)
(0.249322 0 0.0045937)
(0.248633 0 0.0044514)
(0.247675 0 0.00275568)
(0.246612 0 0.00213298)
(0.245208 0 0.00318273)
(0.24283 0 0.0046853)
(0.240608 0 0.00385455)
(0.239341 0 0.00119066)
(0.23844 0 -0.000931697)
(0.237786 0 -0.00121218)
(0.236644 0 -0.000242862)
(0.233999 0 0.00106989)
(0.231735 0 0.00120728)
(0.229571 0 3.76141e-05)
(0.227628 0 -0.00157877)
(0.226529 0 -0.00130655)
(0.225261 0 0.000505051)
(0.226273 0 0.00387568)
(0.225139 0 0.0120372)
(0.233011 0 0.0222966)
(0.236839 0 0.0456607)
(0.245391 0 0.0716476)
(0.243422 0 0.0562616)
(0.220942 0 0.0528479)
(0.151419 0 0.0338654)
(0.15379 0 0.0166877)
(0.128965 0 0.00570732)
(0.118586 0 -0.00844498)
(0.114568 0 0.00246822)
(0.106148 0 0.00477438)
(0.104502 0 0.00185103)
(0.107214 0 0.00141518)
(0.10929 0 0.00127977)
(0.107453 0 0.00081831)
(0.107855 0 3.17434e-05)
(0.107613 0 0.00130377)
(0.106807 0 0.00125057)
(0.106285 0 0.00208616)
(0.105711 0 0.00279033)
(0.104239 0 0.00462009)
(0.104295 0 0.00664744)
(0.103036 0 0.012702)
(0.10737 0 0.0228638)
(0.103894 0 0.0208682)
(0.105921 0 0.0178407)
(0.0878612 0 0.0105345)
(0.0807859 0 0.00513123)
(0.0724852 0 -0.00441893)
(0.069018 0 -0.00889988)
(0.068046 0 -0.00480791)
(0.0670946 0 -0.00135023)
(0.0673404 0 0.000788445)
(0.0694821 0 0.000770072)
(0.071712 0 0.000906712)
(0.0721491 0 -0.000110782)
(0.0722453 0 -0.000246176)
(0.0719811 0 0.000187872)
(0.0718376 0 0.00180152)
(0.0720022 0 0.0031471)
(0.0720912 0 0.00714402)
(0.0737407 0 0.00970684)
(0.0717295 0 0.00760149)
(0.072142 0 0.00534577)
(0.0621311 0 0.00290006)
(0.0602966 0 0.00149411)
(0.0570552 0 -0.00256181)
(0.0568103 0 -0.00386026)
(0.056454 0 -0.00131052)
(0.0564154 0 -4.56193e-05)
(0.0574127 0 0.000398241)
(0.0578149 0 0.00048925)
(0.0576632 0 0.000187675)
(0.0573922 0 0.000109208)
(0.0570913 0 0.000477249)
(0.0567314 0 0.000823284)
(0.0564243 0 0.00103393)
(0.0559945 0 0.00122123)
(0.0554378 0 0.00137009)
(0.0547773 0 0.00151997)
(0.0540454 0 0.00167007)
(0.053276 0 0.00185365)
(0.052428 0 0.00204925)
(0.0515245 0 0.00222814)
(0.0505408 0 0.00241476)
(0.0494711 0 0.00257191)
(0.0483174 0 0.00277702)
(0.0470865 0 0.00297934)
(0.0457843 0 0.00316966)
(0.0444078 0 0.00331937)
(0.042941 0 0.00351843)
(0.0413845 0 0.00373625)
(0.0397421 0 0.00395617)
(0.0380392 0 0.00412118)
(0.036276 0 0.0042452)
(0.0344341 0 0.00440482)
(0.0325127 0 0.00459853)
(0.0305079 0 0.00477571)
(0.0284592 0 0.00491276)
(0.0263852 0 0.00501337)
(0.0242554 0 0.00509287)
(0.022076 0 0.005201)
(0.0198545 0 0.00528979)
(0.0176216 0 0.00529423)
(0.0153894 0 0.00528357)
(0.0131629 0 0.00528682)
(0.0109391 0 0.00528401)
(0.00873064 0 0.0052054)
(0.00656547 0 0.00506086)
(0.00446029 0 0.00493602)
(0.00239375 0 0.00483727)
(0.000375141 0 0.00469521)
(-0.0015751 0 0.00447574)
(-0.00344343 0 0.00427594)
(-0.00523651 0 0.0041291)
(-0.00697531 0 0.00400104)
(-0.00864983 0 0.00385844)
(-0.010256 0 0.0036927)
(-0.0117958 0 0.00350787)
(-0.0132672 0 0.00336437)
(-0.01468 0 0.00325275)
(-0.0160415 0 0.00313152)
(-0.0173402 0 0.00299513)
(-0.01858 0 0.00285955)
(-0.0197762 0 0.00273408)
(-0.0209234 0 0.00262649)
(-0.0220198 0 0.00252117)
(-0.0230591 0 0.00238633)
(-0.0240416 0 0.00224265)
(-0.0249777 0 0.00213633)
(-0.0258681 0 0.00205258)
(-0.0267127 0 0.00195553)
(-0.0275201 0 0.00185786)
(-0.0282899 0 0.00175157)
(-0.0290169 0 0.00164842)
(-0.0297018 0 0.00154937)
(-0.0303409 0 0.00145719)
(-0.0309367 0 0.00137537)
(-0.0314958 0 0.00129207)
(-0.0320222 0 0.00121323)
(-0.0325205 0 0.00113376)
(-0.0329859 0 0.00104515)
(-0.0334126 0 0.000953688)
(-0.0338015 0 0.000878322)
(-0.0341625 0 0.000822645)
(-0.0344981 0 0.000769037)
(-0.0348072 0 0.000702463)
(-0.0350845 0 0.000628306)
(-0.0353313 0 0.000550877)
(-0.0355534 0 0.000486284)
(-0.0357519 0 0.000435492)
(-0.0359287 0 0.000389018)
(-0.0360807 0 0.00033625)
(-0.0362057 0 0.00027497)
(-0.0363063 0 0.000211647)
(-0.0363882 0 0.000166677)
(-0.036455 0 0.000137753)
(-0.0365033 0 9.99534e-05)
(-0.0365278 0 3.67892e-05)
(-0.0365291 0 -2.36633e-05)
(-0.0365107 0 -7.00664e-05)
(-0.0364754 0 -0.000105997)
(-0.0364244 0 -0.000127214)
(-0.0363612 0 -0.000151663)
(-0.0362848 0 -0.000193363)
(-0.036191 0 -0.000245791)
(-0.0360758 0 -0.000296695)
(-0.0359442 0 -0.000330825)
(-0.0358015 0 -0.000352986)
(-0.0356463 0 -0.00036775)
(-0.0354789 0 -0.000397112)
(-0.0352996 0 -0.00043512)
(-0.035107 0 -0.000469649)
(-0.0349007 0 -0.000504332)
(-0.0346829 0 -0.000535946)
(-0.0344526 0 -0.000552588)
(-0.0342126 0 -0.000560453)
(-0.0339673 0 -0.000586679)
(-0.0337103 0 -0.000622554)
(-0.0334403 0 -0.000647737)
(-0.0331579 0 -0.000677646)
(-0.0328636 0 -0.000699494)
(-0.0325631 0 -0.000710039)
(-0.0322572 0 -0.000727645)
(-0.0319464 0 -0.000753217)
(-0.0316279 0 -0.000772523)
(-0.0312974 0 -0.0007833)
(-0.0309559 0 -0.000802248)
(-0.0306042 0 -0.000831778)
(-0.0302457 0 -0.000862238)
(-0.0298793 0 -0.000884807)
(-0.0295037 0 -0.00088593)
(-0.0291226 0 -0.00089426)
(-0.0287364 0 -0.000925827)
(-0.0283373 0 -0.000962109)
(-0.0279237 0 -0.000983676)
(-0.0275038 0 -0.000995286)
(-0.0270802 0 -0.00101649)
(-0.026647 0 -0.00104063)
(-0.0261999 0 -0.00105725)
(-0.0257397 0 -0.00108935)
(-0.0252689 0 -0.00111589)
(-0.0247905 0 -0.0011395)
(-0.0243041 0 -0.00116549)
(-0.0238131 0 -0.00118104)
(-0.0233079 0 -0.00120736)
(-0.0227819 0 -0.00124521)
(-0.0222441 0 -0.00128023)
(-0.021696 0 -0.0013134)
(-0.0211374 0 -0.00132926)
(-0.0205739 0 -0.00133944)
(-0.0199984 0 -0.00135972)
(-0.019412 0 -0.00139193)
(-0.0188098 0 -0.00143994)
(-0.0181904 0 -0.00147857)
(-0.0175616 0 -0.00150439)
(-0.0169247 0 -0.00151947)
(-0.0162779 0 -0.0015272)
(-0.01562 0 -0.00155097)
(-0.0149526 0 -0.00158226)
(-0.014276 0 -0.00161067)
(-0.0135927 0 -0.00162965)
(-0.0128984 0 -0.0016489)
(-0.0121935 0 -0.00167253)
(-0.0114802 0 -0.00169504)
(-0.0107609 0 -0.00170057)
(-0.010041 0 -0.0016934)
(-0.00931961 0 -0.00170571)
(-0.00859056 0 -0.00172234)
(-0.00785573 0 -0.00173811)
(-0.00711842 0 -0.00174515)
(-0.00638386 0 -0.00174268)
(-0.00565077 0 -0.00173329)
(-0.00491845 0 -0.00171474)
(-0.00419076 0 -0.00170599)
(-0.00346706 0 -0.00169973)
(-0.00274878 0 -0.00169057)
(-0.00203952 0 -0.00167542)
(-0.0013384 0 -0.00164704)
(-0.000647296 0 -0.00160943)
(3.32803e-05 0 -0.00158418)
(0.000703614 0 -0.00155536)
(0.00135722 0 -0.00152422)
(0.00199605 0 -0.00149731)
(0.00262494 0 -0.00146281)
(0.00324195 0 -0.00142676)
(0.00384584 0 -0.00139512)
(0.00443229 0 -0.00136243)
(0.00500295 0 -0.00133296)
(0.00556263 0 -0.00129632)
(0.00610901 0 -0.0012612)
(0.00663972 0 -0.00122809)
(0.00715461 0 -0.00119688)
(0.00765565 0 -0.00116254)
(0.00814128 0 -0.00112418)
(0.00861275 0 -0.00108629)
(0.00906843 0 -0.00104979)
(0.00950734 0 -0.00101725)
(0.00993198 0 -0.00098298)
(0.0103419 0 -0.000944363)
(0.0107365 0 -0.000906642)
(0.0111147 0 -0.000870314)
(0.0114766 0 -0.000834865)
(0.0118227 0 -0.000797959)
(0.0121536 0 -0.000759257)
(0.0124694 0 -0.000721934)
(0.0127695 0 -0.000686721)
(0.0130537 0 -0.000651438)
(0.0133217 0 -0.000613726)
(0.0135743 0 -0.000576149)
(0.0138121 0 -0.00054111)
(0.0140351 0 -0.000508078)
(0.0142432 0 -0.000473704)
(0.0144361 0 -0.000438048)
(0.0146141 0 -0.000402652)
(0.014778 0 -0.000368406)
(0.0149279 0 -0.000336253)
(0.015064 0 -0.000305746)
(0.0151867 0 -0.000275479)
(0.0152962 0 -0.000244929)
(0.0153929 0 -0.000214446)
(0.0154772 0 -0.00018434)
(0.0155491 0 -0.00015577)
(0.015609 0 -0.000129109)
(0.0156573 0 -0.000103197)
(0.0156946 0 -7.7288e-05)
(0.015721 0 -5.13818e-05)
(0.0157368 0 -2.58718e-05)
(0.0157427 0 -2.84606e-06)
(0.015739 0 1.80267e-05)
(0.0157261 0 3.87045e-05)
(0.015704 0 6.00308e-05)
(0.0156732 0 8.09767e-05)
(0.0156343 0 0.000100136)
(0.0155876 0 0.000117165)
(0.0155335 0 0.000133722)
(0.0154721 0 0.000150715)
(0.015404 0 0.000167153)
(0.0153296 0 0.000181855)
(0.0152489 0 0.000194873)
(0.0151625 0 0.000207908)
(0.0150708 0 0.000221189)
(0.0149741 0 0.000233016)
(0.0148727 0 0.000243321)
(0.0147663 0 0.000253594)
(0.0146555 0 0.000263353)
(0.0145413 0 0.000272663)
(0.0144235 0 0.00028124)
(0.0143023 0 0.000288779)
(0.0141778 0 0.000295317)
(0.0140503 0 0.000301935)
(0.0139202 0 0.000308274)
(0.0137878 0 0.000314279)
(0.0136532 0 0.000319493)
(0.0135165 0 0.000323936)
(0.013378 0 0.000327153)
(0.0132381 0 0.000330494)
(0.0130969 0 0.0003339)
(0.0129541 0 0.000336636)
(0.0128104 0 0.000338648)
(0.0126655 0 0.000340695)
(0.0125201 0 0.000342557)
(0.0123742 0 0.000344331)
(0.0122278 0 0.000345513)
(0.0120808 0 0.000345643)
(0.0119337 0 0.000345495)
(0.0117865 0 0.000345248)
(0.0116395 0 0.000345414)
(0.0114924 0 0.000345333)
(0.0113454 0 0.000345214)
(0.0111991 0 0.000344093)
(0.011053 0 0.000343164)
(0.0109074 0 0.000341017)
(0.0107622 0 0.000340602)
(0.0106179 0 0.00033971)
(0.0104741 0 0.00033781)
(0.0103311 0 0.000334911)
(0.0101884 0 0.000334585)
(0.0100466 0 0.000332812)
(0.0099057 0 0.000330398)
(0.00976571 0 0.000328949)
(0.00962654 0 0.000327408)
(0.0094884 0 0.000325682)
(0.00935055 0 0.000322524)
(0.00921428 0 0.000320253)
(0.00907854 0 0.000316597)
(0.00894449 0 0.00031526)
(0.008811 0 0.000311817)
(0.00867936 0 0.000310224)
(0.00854872 0 0.000306032)
(0.00841859 0 0.000303668)
(0.00829138 0 0.000298203)
(0.00816346 0 0.000296534)
(0.00804071 0 0.000293358)
(0.00791729 0 0.00029106)
(0.00779849 0 0.000288276)
(0.00767791 0 0.000283287)
(0.00755891 0 0.000280449)
(0.00743994 0 0.000273535)
(0.00732028 0 0.000281407)
(0.00720234 0 0.000272265)
(0.00709979 0 0.000282681)
(0.00698301 0 0.000269756)
(0.00687281 0 0.000254442)
(0.0067586 0 0.000238533)
(0.00660498 0 0.000271107)
(0.00649013 0 0.000252659)
(0.00644396 0 0.000343807)
(0.00632978 0 0.000320124)
(0.00631949 0 0.000167775)
(0.00618233 0 0.00013264)
(0.0063349 0 0.00012886)
(0.00619629 0 0.000143801)
(0.00616075 0 8.1256e-05)
(0.00600945 0 7.7931e-05)
(0.00593233 0 0.000152344)
(0.00583684 0 0.000163278)
(0.00574313 0 0.000185723)
(0.00565278 0 0.000195798)
(0.00555677 0 0.000202201)
(0.00545638 0 0.000215035)
(0.00536448 0 0.000215639)
(0.00526282 0 0.000225692)
(0.00518104 0 0.00022874)
(0.00507813 0 0.0002271)
(0.00499037 0 0.000212668)
(0.00488246 0 0.00020998)
(0.00476314 0 0.000236607)
(0.00462669 0 0.000231108)
(0.00448208 0 0.000296981)
(0.00435013 0 0.000289339)
(0.00421792 0 0.000354164)
(0.00412278 0 0.000318924)
(0.00400908 0 0.000304461)
(0.00390232 0 0.000278541)
(0.00378526 0 0.000263068)
(0.00368382 0 0.00025481)
(0.00354189 0 0.000238798)
(0.00346294 0 0.000263929)
(0.003342 0 0.000225523)
(0.00329375 0 0.000299381)
(0.00316924 0 0.000235311)
(0.003127 0 0.000233017)
(0.00300452 0 0.000170431)
(0.00276503 0 0.000249144)
(0.00266701 0 0.00015798)
(0.00266711 0 0.000603831)
(0.00248484 0 0.000411763)
(0.00290941 0 0.000155265)
(0.00248351 0 7.55025e-05)
(0.00431814 0 -0.000308395)
(0.00393454 0 -0.00010091)
(0.00441113 0 -0.00134221)
(0.00424243 0 -0.00115915)
(0.00418508 0 -0.000617288)
(0.00418132 0 -0.000362804)
(0.00417574 0 -0.0002166)
(0.00416042 0 -9.79128e-05)
(0.00413776 0 -1.82425e-05)
(0.00410273 0 4.20572e-05)
(0.00405676 0 8.65538e-05)
(0.00400156 0 0.000119653)
(0.00393828 0 0.00014566)
(0.00386809 0 0.000166142)
(0.00379193 0 0.00018198)
(0.00371078 0 0.000194577)
(0.00362525 0 0.000205389)
(0.00353591 0 0.000215044)
(0.0034434 0 0.000223442)
(0.00334834 0 0.000230315)
(0.00325119 0 0.000235779)
(0.00315213 0 0.000240224)
(0.00305127 0 0.000244103)
(0.00294872 0 0.000247729)
(0.00284452 0 0.000251143)
(0.00273883 0 0.000254176)
(0.00263193 0 0.000256658)
(0.00252416 0 0.000258405)
(0.00241532 0 0.000259399)
(0.00230588 0 0.000260396)
(0.00219647 0 0.000260848)
(0.00208677 0 0.000261068)
(0.00197672 0 0.000260838)
(0.00186663 0 0.000259658)
(0.00175682 0 0.000257966)
(0.00164729 0 0.000256278)
(0.00153793 0 0.00025489)
(0.00142864 0 0.000253821)
(0.0013195 0 0.00025286)
(0.00121085 0 0.000252315)
(0.00110294 0 0.00025225)
(0.000995045 0 0.000252368)
(0.000886822 0 0.000252644)
(0.000778624 0 0.000253162)
(0.000670333 0 0.000253957)
(0.000561835 0 0.000255008)
(0.000453129 0 0.000256115)
(0.000344318 0 0.000256971)
(0.000235566 0 0.000257307)
(0.00012703 0 0.000257006)
(1.87797e-05 0 0.000256142)
(-8.91603e-05 0 0.000254836)
(-0.000196729 0 0.000253207)
(-0.00030383 0 0.000251458)
(-0.000410429 0 0.000250001)
(-0.00051664 0 0.000249385)
(-0.000622763 0 0.000250088)
(-0.000729118 0 0.000251628)
(-0.000835684 0 0.000252517)
(-0.000942073 0 0.000251488)
(-0.001048 0 0.000248826)
(-0.0011537 0 0.000246786)
(-0.00125972 0 0.000247844)
(-0.00136689 0 0.00025192)
(-0.00147476 0 0.000255449)
(-0.00158138 0 0.000254682)
(-0.00168648 0 0.000250257)
(-0.00179162 0 0.000247678)
(-0.00189806 0 0.000249943)
(-0.00200535 0 0.000253713)
(-0.00211142 0 0.000253336)
(-0.00221556 0 0.000246982)
(-0.00231973 0 0.000243341)
(-0.00242531 0 0.000245121)
(-0.00253081 0 0.000247153)
(-0.00263478 0 0.000243256)
(-0.00273868 0 0.000239426)
(-0.00284274 0 0.000242305)
(-0.00294189 0 0.000248759)
(-0.00307192 0 0.000250277)
(-0.00323411 0 0.000249622)
(-0.00307521 0 0.000254186)
(-0.00330271 0 0.00026738)
(-0.00427427 0 0.000292932)
(0.21267 0 -0.00742846)
(0.210835 0 -0.00718186)
(0.209913 0 -0.00607634)
(0.211144 0 -0.00577531)
(0.214089 0 -0.0044642)
(0.217324 0 -0.00436869)
(0.21943 0 -0.00753893)
(0.222491 0 -0.0210385)
(0.228121 0 -0.0518493)