/*--------------------------------*- C++ -*----------------------------------*\
| =========                 |                                                 |
| \\      /  F ield         | OpenFOAM: The Open Source CFD Toolbox           |
|  \\    /   O peration     | Version:  v2006                                 |
|   \\  /    A nd           | Website:  www.openfoam.com                      |
|    \\/     M anipulation  |                                                 |
\*---------------------------------------------------------------------------*/
FoamFile
{
    version     2.0;
    format      ascii;
    class       surfaceScalarField;
    location    "6.1";
    object      alphaPhi0.water;
}
// * * * * * * * * * * * * * * * * * * * * * * * * * * * * * * * * * * * * * //

dimensions      [0 3 -1 0 0 0 0];
oriented        oriented;


internalField   nonuniform List<scalar> 
65390
(
-2.70346e-05
4.64162e-06
-2.42724e-05
-2.76222e-06
-2.00819e-05
-4.19053e-06
-1.48457e-05
-5.23621e-06
-1.01981e-05
-4.64753e-06
-5.7488e-06
-4.44936e-06
-2.31624e-06
-3.43259e-06
6.6949e-07
-2.98577e-06
3.65164e-06
-2.9822e-06
6.84083e-06
-3.18923e-06
1.02393e-05
-3.39851e-06
1.33045e-05
-3.06528e-06
1.54007e-05
-2.09624e-06
1.56737e-05
-2.73031e-07
1.37258e-05
1.94782e-06
9.76238e-06
3.96333e-06
4.32172e-06
5.4406e-06
-2.48419e-06
6.80586e-06
-1.15985e-05
9.11425e-06
-2.18398e-05
1.02433e-05
-2.86016e-05
6.7685e-06
-3.20596e-05
3.45794e-06
-3.48154e-05
2.75105e-06
-3.75209e-05
2.69768e-06
-3.94177e-05
1.89682e-06
-4.0769e-05
1.3512e-06
-4.23941e-05
1.62506e-06
-4.42593e-05
1.8657e-06
-4.62877e-05
2.03584e-06
-4.84216e-05
2.14618e-06
-5.03989e-05
1.98042e-06
-5.21013e-05
1.69397e-06
-5.37764e-05
1.68349e-06
-5.55277e-05
1.76344e-06
-5.7047e-05
1.48214e-06
-5.7852e-05
8.01558e-07
-5.83361e-05
4.8416e-07
-5.89702e-05
6.36316e-07
-6.00718e-05
1.11794e-06
-6.17997e-05
1.74129e-06
-6.36785e-05
1.87874e-06
-6.51043e-05
1.39353e-06
-6.5863e-05
7.55011e-07
-6.62591e-05
3.961e-07
-6.66463e-05
3.87234e-07
-6.73107e-05
6.67067e-07
-6.84177e-05
1.12015e-06
-6.97615e-05
1.3535e-06
-7.08966e-05
1.13511e-06
-7.17219e-05
8.02154e-07
-7.21585e-05
4.33632e-07
-7.24154e-05
2.56518e-07
-7.26364e-05
2.22834e-07
-7.27792e-05
1.41834e-07
-7.27201e-05
-6.1015e-08
-7.25648e-05
-1.55329e-07
-7.25382e-05
-2.65929e-08
-7.29505e-05
4.16688e-07
-7.36537e-05
7.16732e-07
-7.43953e-05
7.49296e-07
-7.48614e-05
4.66181e-07
-7.50149e-05
1.3579e-07
-7.50838e-05
6.9227e-08
-7.52983e-05
2.14153e-07
-7.56453e-05
3.44323e-07
-7.58312e-05
1.80349e-07
-7.54331e-05
-3.99277e-07
-7.42511e-05
-1.18203e-06
-7.25806e-05
-1.67053e-06
-7.06328e-05
-1.94783e-06
-6.83552e-05
-2.27613e-06
-6.57323e-05
-2.61191e-06
-6.26151e-05
-3.09662e-06
-5.86379e-05
-3.97724e-06
-5.36076e-05
-5.03026e-06
-4.75077e-05
-6.09995e-06
-4.06932e-05
-6.81843e-06
-3.27525e-05
-7.95181e-06
-2.62939e-05
-6.46166e-06
-2.30621e-05
-3.23479e-06
-2.241e-05
-6.55939e-07
-2.42123e-05
1.80218e-06
-2.59521e-05
1.73982e-06
-2.79094e-05
1.9573e-06
-3.04643e-05
2.55561e-06
-3.1511e-05
1.04825e-06
-3.18963e-05
3.86245e-07
-3.21994e-05
3.00254e-07
-3.24871e-05
2.88004e-07
-3.25078e-05
2.22592e-08
-3.24346e-05
-6.46974e-08
-3.23578e-05
-7.68558e-08
-3.18962e-05
-4.61633e-07
-3.12209e-05
-6.85028e-07
-3.01304e-05
-1.09056e-06
-2.84814e-05
-1.64898e-06
-2.59199e-05
-2.56136e-06
-2.29725e-05
-2.94645e-06
-1.96845e-05
-3.28725e-06
-1.77388e-05
-1.94661e-06
-1.73417e-05
-3.93429e-07
-1.7343e-05
1.25701e-09
-1.78896e-05
5.4657e-07
-1.82941e-05
4.04488e-07
-1.89968e-05
7.01769e-07
-1.94024e-05
4.02717e-07
-1.94647e-05
6.22794e-08
-1.95086e-05
4.3874e-08
-1.95928e-05
8.4207e-08
-1.97403e-05
1.4967e-07
-1.98356e-05
9.6483e-08
-1.9933e-05
9.7422e-08
-1.98653e-05
-7.10904e-08
-1.95406e-05
-3.25024e-07
-1.88128e-05
-7.28064e-07
-1.77893e-05
-1.02196e-06
-1.62863e-05
-1.50181e-06
-1.5313e-05
-9.73235e-07
-1.51764e-05
-1.37735e-07
-1.5271e-05
9.35092e-08
-1.55528e-05
2.81817e-07
-1.57322e-05
1.79502e-07
-1.61513e-05
4.20401e-07
-1.64752e-05
3.24816e-07
-1.66294e-05
1.53792e-07
-1.68159e-05
1.84788e-07
-1.69766e-05
1.60716e-07
-1.71293e-05
1.52704e-07
-1.73188e-05
1.89563e-07
-1.7482e-05
1.6397e-07
-1.76149e-05
1.33433e-07
-1.77459e-05
1.3084e-07
-1.78552e-05
1.09383e-07
-1.79669e-05
1.12129e-07
-1.80775e-05
1.08829e-07
-1.8185e-05
1.07516e-07
-1.82889e-05
1.03824e-07
-1.83823e-05
9.3445e-08
-1.84736e-05
9.12919e-08
-1.85523e-05
7.87613e-08
-1.86237e-05
7.19081e-08
-1.8687e-05
6.66618e-08
-1.87485e-05
6.15381e-08
-1.88006e-05
5.21503e-08
-1.8845e-05
4.2558e-08
-1.88756e-05
2.90705e-08
-1.88914e-05
1.57278e-08
-1.88977e-05
6.29244e-09
-1.88978e-05
2.06542e-10
-1.88911e-05
-4.77744e-09
-1.88782e-05
-1.29133e-08
-1.88524e-05
-2.81451e-08
-1.8809e-05
-4.3347e-08
-1.87571e-05
-5.19522e-08
-1.86983e-05
-5.81342e-08
-1.86318e-05
-6.474e-08
-1.85578e-05
-7.3995e-08
-1.84727e-05
-8.50968e-08
-1.8381e-05
-9.42187e-08
-1.82783e-05
-1.02807e-07
-1.81665e-05
-1.11878e-07
-1.80453e-05
-1.21198e-07
-1.79151e-05
-1.29962e-07
-1.77785e-05
-1.36013e-07
-1.76365e-05
-1.41769e-07
-1.74838e-05
-1.53355e-07
-1.73179e-05
-1.659e-07
-1.71447e-05
-1.72904e-07
-1.69686e-05
-1.75612e-07
-1.67866e-05
-1.82582e-07
-1.65895e-05
-1.97285e-07
-1.63796e-05
-2.09897e-07
-1.61632e-05
-2.16218e-07
-1.59429e-05
-2.19419e-07
-1.57168e-05
-2.25569e-07
-1.54793e-05
-2.38713e-07
-1.52256e-05
-2.53693e-07
-1.49633e-05
-2.62253e-07
-1.46941e-05
-2.68573e-07
-1.44151e-05
-2.77932e-07
-1.41246e-05
-2.90461e-07
-1.38252e-05
-2.9938e-07
-1.35214e-05
-3.04168e-07
-1.32088e-05
-3.13463e-07
-1.28808e-05
-3.28152e-07
-1.25338e-05
-3.47202e-07
-1.21713e-05
-3.61432e-07
-1.1803e-05
-3.68141e-07
-1.14274e-05
-3.75388e-07
-1.10438e-05
-3.84678e-07
-1.0646e-05
-3.97845e-07
-1.02326e-05
-4.13356e-07
-9.80381e-06
-4.28789e-07
-9.36227e-06
-4.40504e-07
-8.9173e-06
-4.44976e-07
-8.46488e-06
-4.52406e-07
-8.00354e-06
-4.61879e-07
-7.52964e-06
-4.74177e-07
-7.0378e-06
-4.91835e-07
-6.53106e-06
-5.0674e-07
-6.01794e-06
-5.13113e-07
-5.50841e-06
-5.09097e-07
-5.00175e-06
-5.06468e-07
-4.49078e-06
-5.10952e-07
-3.97124e-06
-5.19774e-07
-3.44294e-06
-5.28442e-07
-2.91568e-06
-5.27258e-07
-2.39784e-06
-5.17783e-07
-1.89153e-06
-5.06257e-07
-1.39125e-06
-5.00222e-07
-8.93219e-07
-4.98067e-07
-4.05068e-07
-4.88151e-07
6.23166e-08
-4.6738e-07
5.08431e-07
-4.46076e-07
9.46593e-07
-4.3811e-07
1.38014e-06
-4.33515e-07
1.80466e-06
-4.24511e-07
2.21627e-06
-4.11655e-07
2.6086e-06
-3.92476e-07
2.98437e-06
-3.75753e-07
3.35154e-06
-3.66995e-07
3.71502e-06
-3.63298e-07
4.07406e-06
-3.59032e-07
4.42493e-06
-3.50879e-07
4.7637e-06
-3.39015e-07
5.08784e-06
-3.24289e-07
5.40256e-06
-3.14717e-07
5.71158e-06
-3.08494e-07
6.01485e-06
-3.03247e-07
6.31378e-06
-2.98918e-07
6.60557e-06
-2.91801e-07
6.88621e-06
-2.80915e-07
7.15607e-06
-2.69981e-07
7.42032e-06
-2.63891e-07
7.67918e-06
-2.58808e-07
7.93226e-06
-2.53054e-07
8.17971e-06
-2.47623e-07
8.42057e-06
-2.40858e-07
8.65352e-06
-2.32949e-07
8.87978e-06
-2.25898e-07
9.099e-06
-2.19233e-07
9.31055e-06
-2.11538e-07
9.51454e-06
-2.04296e-07
9.71333e-06
-1.9854e-07
9.90733e-06
-1.93707e-07
1.00961e-05
-1.88811e-07
1.02788e-05
-1.82628e-07
1.04524e-05
-1.73792e-07
1.06165e-05
-1.64162e-07
1.07764e-05
-1.59648e-07
1.09324e-05
-1.55921e-07
1.10821e-05
-1.4974e-07
1.12248e-05
-1.42643e-07
1.13593e-05
-1.347e-07
1.1486e-05
-1.26939e-07
1.16069e-05
-1.20877e-07
1.17224e-05
-1.14935e-07
1.1831e-05
-1.08634e-07
1.19332e-05
-1.02141e-07
1.20279e-05
-9.46921e-08
1.21149e-05
-8.72838e-08
1.21955e-05
-8.05488e-08
1.22701e-05
-7.44679e-08
1.2339e-05
-6.87591e-08
1.24009e-05
-6.1914e-08
1.24544e-05
-5.34486e-08
1.24984e-05
-4.45188e-08
1.25361e-05
-3.74986e-08
1.2569e-05
-3.25746e-08
1.2596e-05
-2.69166e-08
1.26161e-05
-2.01203e-08
1.26291e-05
-1.30275e-08
1.2634e-05
-4.99145e-09
1.26304e-05
3.41736e-09
1.26205e-05
1.00375e-08
1.26045e-05
1.60846e-08
1.2582e-05
2.25279e-08
1.25529e-05
2.90409e-08
1.25173e-05
3.56045e-08
1.24756e-05
4.16811e-08
1.24275e-05
4.80412e-08
1.23711e-05
5.61253e-08
1.23074e-05
6.3842e-08
1.22384e-05
6.9095e-08
1.21643e-05
7.40583e-08
1.20844e-05
7.99528e-08
1.19983e-05
8.60341e-08
1.19063e-05
9.19219e-08
1.18078e-05
9.84096e-08
1.17027e-05
1.04939e-07
1.15925e-05
1.10227e-07
1.14778e-05
1.14765e-07
1.13582e-05
1.19614e-07
1.12338e-05
1.24391e-07
1.11041e-05
1.29568e-07
1.09682e-05
1.35626e-07
1.08281e-05
1.40265e-07
1.06839e-05
1.44253e-07
1.05355e-05
1.48349e-07
1.03838e-05
1.51736e-07
1.02279e-05
1.55765e-07
1.0067e-05
1.6078e-07
9.90292e-06
1.64139e-07
9.73604e-06
1.66886e-07
9.56639e-06
1.69555e-07
9.39365e-06
1.72708e-07
9.21795e-06
1.75673e-07
9.04003e-06
1.77941e-07
8.86061e-06
1.79399e-07
8.68014e-06
1.80436e-07
8.49761e-06
1.82495e-07
8.31242e-06
1.85124e-07
8.12577e-06
1.86656e-07
7.93928e-06
1.86481e-07
7.75319e-06
1.86072e-07
7.56632e-06
1.86826e-07
7.37837e-06
1.87917e-07
7.19052e-06
1.87859e-07
7.0029e-06
1.8762e-07
6.81566e-06
1.87229e-07
6.62825e-06
1.8739e-07
6.43979e-06
1.88414e-07
6.25136e-06
1.8843e-07
6.06362e-06
1.8775e-07
5.87583e-06
1.87782e-07
5.68663e-06
1.89166e-07
5.4955e-06
1.91104e-07
5.30382e-06
1.91666e-07
5.11214e-06
1.91691e-07
4.91976e-06
1.92389e-07
4.7253e-06
1.94447e-07
4.52753e-06
1.97732e-07
4.32793e-06
1.99603e-07
4.12818e-06
1.99758e-07
3.92891e-06
1.99263e-07
3.72978e-06
1.99129e-07
3.53031e-06
1.99456e-07
3.3304e-06
1.99897e-07
3.13008e-06
2.00315e-07
2.9306e-06
1.99489e-07
2.73288e-06
1.97724e-07
2.53694e-06
1.95939e-07
2.34279e-06
1.94158e-07
2.14969e-06
1.93092e-07
1.95794e-06
1.91749e-07
1.76922e-06
1.88727e-07
1.58424e-06
1.84984e-07
1.4029e-06
1.81344e-07
1.22453e-06
1.78372e-07
1.04881e-06
1.75717e-07
8.76527e-07
1.72281e-07
7.09003e-07
1.67529e-07
5.46315e-07
1.6269e-07
3.87333e-07
1.58984e-07
2.32334e-07
1.55e-07
8.22732e-08
1.50063e-07
-6.28214e-08
1.45096e-07
-2.03146e-07
1.40326e-07
-3.38759e-07
1.35614e-07
-4.69582e-07
1.30825e-07
-5.9566e-07
1.26079e-07
-7.17049e-07
1.21391e-07
-8.33784e-07
1.16737e-07
-9.46159e-07
1.12377e-07
-1.05418e-06
1.08025e-07
-1.15771e-06
1.03532e-07
-1.25638e-06
9.86703e-08
-1.35026e-06
9.38763e-08
-1.43946e-06
8.92112e-08
-1.52436e-06
8.49002e-08
-1.60493e-06
8.05662e-08
-1.68085e-06
7.59287e-08
-1.75186e-06
7.10088e-08
-1.81809e-06
6.62306e-08
-1.87989e-06
6.18028e-08
-1.9373e-06
5.74114e-08
-1.99021e-06
5.2908e-08
-2.0387e-06
4.84937e-08
-2.08302e-06
4.43282e-08
-2.12325e-06
4.0226e-08
-2.15895e-06
3.56981e-08
-2.18996e-06
3.1012e-08
-2.21639e-06
2.64286e-08
-2.23865e-06
2.22666e-08
-2.25686e-06
1.82092e-08
-2.27111e-06
1.42538e-08
-2.28164e-06
1.05233e-08
-2.28807e-06
6.43597e-09
-2.29038e-06
2.30729e-09
-2.28888e-06
-1.49588e-09
-2.28415e-06
-4.72318e-09
-2.27595e-06
-8.20014e-09
-2.26406e-06
-1.18985e-08
-2.24859e-06
-1.5471e-08
-2.23002e-06
-1.8569e-08
-2.20822e-06
-2.17958e-08
-2.18353e-06
-2.4685e-08
-2.15638e-06
-2.71483e-08
-2.12672e-06
-2.96583e-08
-2.09448e-06
-3.22333e-08
-2.05945e-06
-3.50289e-08
-2.02169e-06
-3.77631e-08
-1.98162e-06
-4.00657e-08
-1.93974e-06
-4.18729e-08
-1.89568e-06
-4.40601e-08
-1.8503e-06
-4.53722e-08
-1.80218e-06
-4.811e-08
-1.75235e-06
-4.98323e-08
-1.70005e-06
-5.2293e-08
-1.6465e-06
-5.35455e-08
-1.59211e-06
-5.43891e-08
-1.53643e-06
-5.56699e-08
-1.48108e-06
-5.53537e-08
-1.42277e-06
-5.82985e-08
-1.36446e-06
-5.83083e-08
-1.30598e-06
-5.84803e-08
-1.2468e-06
-5.91725e-08
-1.19085e-06
-5.5947e-08
-1.13763e-06
-5.32128e-08
-1.07652e-06
-6.11093e-08
-1.0172e-06
-5.93089e-08
-9.57569e-07
-5.96273e-08
-8.92058e-07
-6.55064e-08
-8.56163e-07
-3.58908e-08
-8.29051e-07
-2.71071e-08
-7.6505e-07
-6.39963e-08
-7.21056e-07
-4.399e-08
-6.33977e-07
-8.70747e-08
-5.19708e-07
-1.14266e-07
-2.90142e-07
-2.29562e-07
2.81369e-09
-2.92951e-07
2.12069e-07
-2.09252e-07
3.80597e-07
-1.68524e-07
5.05309e-07
-1.24709e-07
6.05719e-07
-1.00407e-07
6.90763e-07
-8.50405e-08
7.74755e-07
-8.39891e-08
8.54626e-07
-7.98685e-08
9.31468e-07
-7.68391e-08
9.99883e-07
-6.84123e-08
1.07429e-06
-7.44095e-08
1.10111e-06
-2.68164e-08
1.10745e-06
-6.33446e-09
1.15984e-06
-5.23889e-08
1.18972e-06
-2.98795e-08
1.27961e-06
-8.98804e-08
1.40954e-06
-1.29934e-07
1.71632e-06
-3.06777e-07
2.12469e-06
-4.08364e-07
2.42427e-06
-2.9958e-07
2.67548e-06
-2.51202e-07
2.84345e-06
-1.67974e-07
2.98824e-06
-1.44782e-07
3.10342e-06
-1.15179e-07
3.20301e-06
-9.95923e-08
3.28112e-06
-7.81075e-08
3.33414e-06
-5.30125e-08
3.38675e-06
-5.26137e-08
3.43584e-06
-4.90827e-08
3.47274e-06
-3.68959e-08
3.53926e-06
-6.65257e-08
3.55952e-06
-2.02522e-08
3.48073e-06
7.87843e-08
3.45108e-06
2.96565e-08
3.39322e-06
5.7858e-08
3.38555e-06
7.67446e-09
3.59618e-06
-2.10645e-07
4.027e-06
-4.3084e-07
4.86398e-06
-8.36996e-07
5.90561e-06
-1.04167e-06
6.83583e-06
-9.30338e-07
7.57731e-06
-7.41762e-07
8.1242e-06
-5.46913e-07
8.53419e-06
-4.1001e-07
8.85623e-06
-3.22003e-07
9.12192e-06
-2.65717e-07
9.34348e-06
-2.21606e-07
9.53153e-06
-1.8807e-07
9.69464e-06
-1.63102e-07
9.84262e-06
-1.47947e-07
9.97557e-06
-1.32947e-07
1.0094e-05
-1.18481e-07
1.02043e-05
-1.10239e-07
1.03057e-05
-1.01405e-07
1.03982e-05
-9.24474e-08
1.04871e-05
-8.89105e-08
1.05695e-05
-8.23724e-08
1.06454e-05
-7.58654e-08
1.07164e-05
-7.0967e-08
1.07872e-05
-7.07478e-08
1.08537e-05
-6.65169e-08
1.09141e-05
-6.04276e-08
1.09704e-05
-5.63181e-08
1.10246e-05
-5.41495e-08
1.10771e-05
-5.2481e-08
1.11275e-05
-5.03684e-08
1.11754e-05
-4.78948e-08
1.12214e-05
-4.60277e-08
1.12649e-05
-4.34741e-08
1.13066e-05
-4.17729e-08
1.13437e-05
-3.71245e-08
1.13806e-05
-3.68772e-08
1.14193e-05
-3.87293e-08
1.14585e-05
-3.91752e-08
1.14969e-05
-3.83753e-08
1.15336e-05
-3.67034e-08
1.15684e-05
-3.48439e-08
1.16015e-05
-3.30483e-08
1.16332e-05
-3.17153e-08
1.16641e-05
-3.08423e-08
1.16939e-05
-2.97748e-08
1.17224e-05
-2.85432e-08
1.17492e-05
-2.67941e-08
1.17775e-05
-2.83403e-08
1.18041e-05
-2.65359e-08
1.18266e-05
-2.25632e-08
1.18471e-05
-2.04207e-08
1.18668e-05
-1.97099e-08
1.18862e-05
-1.93794e-08
1.19056e-05
-1.93947e-08
1.1925e-05
-1.93909e-08
1.19442e-05
-1.91921e-08
1.19629e-05
-1.87736e-08
1.1981e-05
-1.80586e-08
1.19981e-05
-1.71234e-08
1.20143e-05
-1.62221e-08
1.203e-05
-1.56414e-08
1.20455e-05
-1.5548e-08
1.20611e-05
-1.55242e-08
1.20762e-05
-1.51246e-08
1.20903e-05
-1.41554e-08
1.21032e-05
-1.28345e-08
1.21153e-05
-1.21136e-08
1.21276e-05
-1.23144e-08
1.21403e-05
-1.27344e-08
1.21527e-05
-1.23163e-08
1.21636e-05
-1.08979e-08
1.21738e-05
-1.02673e-08
1.21843e-05
-1.04699e-08
1.21955e-05
-1.12646e-08
1.22043e-05
-8.79083e-09
1.22145e-05
-1.01638e-08
1.22276e-05
-1.31288e-08
1.22446e-05
-1.69612e-08
1.22598e-05
-1.52098e-08
1.22723e-05
-1.25336e-08
1.22834e-05
-1.10989e-08
1.22944e-05
-1.09562e-08
1.23059e-05
-1.14752e-08
-1.39572e-08
-2.0002e-05
2.26723e-06
-1.71811e-05
-5.58342e-06
-1.48029e-05
-6.569e-06
-1.28676e-05
-7.17171e-06
-1.09247e-05
-6.59052e-06
-9.70324e-06
-5.67103e-06
-8.72019e-06
-4.41581e-06
-8.21542e-06
-3.49069e-06
-8.16813e-06
-3.02963e-06
-8.41419e-06
-2.94329e-06
-8.97518e-06
-2.83763e-06
-9.70282e-06
-2.33773e-06
-1.08344e-05
-9.6472e-07
-1.26229e-05
1.51531e-06
-1.56638e-05
4.98867e-06
-2.00154e-05
8.31469e-06
-2.46957e-05
1.01206e-05
-2.84437e-05
1.05536e-05
-3.01015e-05
1.07722e-05
-3.01456e-05
1.02909e-05
-3.10024e-05
7.63191e-06
-3.33327e-05
5.78829e-06
-3.59901e-05
5.40417e-06
-3.81635e-05
4.86326e-06
-4.00356e-05
3.76886e-06
-4.18565e-05
3.17197e-06
-4.35321e-05
3.3015e-06
-4.51436e-05
3.49004e-06
-4.68708e-05
3.7805e-06
-4.87986e-05
4.07398e-06
-5.08142e-05
3.99288e-06
-5.27234e-05
3.5902e-06
-5.43038e-05
3.27241e-06
-5.56281e-05
3.08115e-06
-5.67017e-05
2.53604e-06
-5.76902e-05
1.78041e-06
-5.86417e-05
1.43584e-06
-5.96284e-05
1.63883e-06
-6.0686e-05
2.20053e-06
-6.17664e-05
2.82165e-06
-6.28941e-05
3.00644e-06
-6.41252e-05
2.59273e-06
-6.51266e-05
1.74317e-06
-6.58323e-05
1.10072e-06
-6.65168e-05
1.0757e-06
-6.72845e-05
1.45197e-06
-6.81458e-05
1.99645e-06
-6.91875e-05
2.39519e-06
-7.02977e-05
2.24532e-06
-7.13561e-05
1.82694e-06
-7.21578e-05
1.23083e-06
-7.26457e-05
7.43718e-07
-7.29385e-05
5.15416e-07
-7.31625e-05
3.65433e-07
-7.33743e-05
1.50646e-07
-7.36212e-05
9.62354e-08
-7.39302e-05
3.05178e-07
-7.42754e-05
7.81949e-07
-7.45466e-05
9.87977e-07
-7.4664e-05
8.66645e-07
-7.45629e-05
3.65077e-07
-7.45494e-05
9.69223e-08
-7.47177e-05
2.27773e-07
-7.50564e-05
5.83625e-07
-7.53935e-05
6.8157e-07
-7.56491e-05
4.04497e-07
-7.55692e-05
-4.92323e-07
-7.50944e-05
-1.65754e-06
-7.4279e-05
-2.48595e-06
-7.31899e-05
-3.0293e-06
-7.20238e-05
-3.41527e-06
-7.10916e-05
-3.54406e-06
-7.02623e-05
-3.92596e-06
-6.93771e-05
-4.86242e-06
-6.81745e-05
-6.25443e-06
-6.625e-05
-8.03705e-06
-6.31063e-05
-9.96324e-06
-5.96359e-05
-1.14223e-05
-5.46292e-05
-1.14684e-05
-4.81381e-05
-9.72605e-06
-3.96697e-05
-9.12447e-06
-3.13588e-05
-6.50881e-06
-2.68077e-05
-2.81131e-06
-2.55658e-05
7.15385e-07
-2.62193e-05
3.2093e-06
-2.75243e-05
2.35513e-06
-2.91738e-05
2.03886e-06
-3.12851e-05
2.40791e-06
-3.29216e-05
1.92262e-06
-3.31877e-05
2.91271e-07
-3.29546e-05
-2.91851e-07
-3.28784e-05
-1.53126e-07
-3.26689e-05
-6.7615e-07
-3.25115e-05
-8.47116e-07
-3.24014e-05
-1.2006e-06
-3.22049e-05
-1.84551e-06
-3.22371e-05
-2.52543e-06
-3.21942e-05
-2.98973e-06
-3.17385e-05
-3.7447e-06
-2.96491e-05
-4.03697e-06
-2.64809e-05
-3.55737e-06
-2.28843e-05
-3.59532e-06
-2.03793e-05
-1.95848e-06
-1.93679e-05
-6.06901e-07
-1.86408e-05
-2.92705e-08
-1.85734e-05
3.35293e-07
-1.87486e-05
2.375e-07
-1.91654e-05
4.60694e-07
-1.98313e-05
7.53217e-07
-2.02326e-05
5.53773e-07
-2.0182e-05
4.58647e-08
-2.01598e-05
7.52583e-08
-2.01652e-05
-6.78609e-08
-2.0204e-05
-2.90383e-07
-2.03716e-05
-5.61056e-07
-2.04673e-05
-9.25035e-07
-2.06022e-05
-1.36473e-06
-2.01935e-05
-1.38193e-06
-1.91665e-05
-1.1648e-06
-1.76759e-05
-1.39935e-06
-1.65829e-05
-8.10367e-07
-1.6272e-05
-1.28387e-07
-1.61084e-05
2.56794e-07
-1.62099e-05
4.26337e-07
-1.63903e-05
3.34152e-07
-1.68077e-05
5.98739e-07
-1.71157e-05
4.68105e-07
-1.72265e-05
2.63517e-07
-1.73416e-05
3.05522e-07
-1.74587e-05
2.82786e-07
-1.75903e-05
2.65119e-07
-1.77581e-05
2.98005e-07
-1.78932e-05
2.45127e-07
-1.7998e-05
2.16928e-07
-1.80952e-05
2.06054e-07
-1.81878e-05
1.97418e-07
-1.8286e-05
2.02008e-07
-1.83811e-05
1.88659e-07
-1.84801e-05
1.89623e-07
-1.85657e-05
1.64468e-07
-1.86378e-05
1.46076e-07
-1.87021e-05
1.33455e-07
-1.87602e-05
1.19645e-07
-1.88108e-05
1.02722e-07
-1.88524e-05
8.42102e-08
-1.88833e-05
5.80106e-08
-1.89016e-05
3.29159e-08
-1.89119e-05
1.65862e-08
-1.89124e-05
4.02304e-09
-1.8906e-05
-1.11346e-08
-1.8887e-05
-3.1918e-08
-1.8858e-05
-6.00815e-08
-1.88169e-05
-8.55178e-08
-1.87683e-05
-1.00496e-07
-1.87125e-05
-1.13044e-07
-1.86467e-05
-1.29063e-07
-1.85693e-05
-1.51365e-07
-1.84799e-05
-1.74504e-07
-1.83829e-05
-1.91192e-07
-1.82828e-05
-2.05119e-07
-1.81734e-05
-2.21621e-07
-1.80538e-05
-2.40853e-07
-1.79241e-05
-2.59128e-07
-1.77865e-05
-2.72394e-07
-1.76422e-05
-2.86138e-07
-1.74883e-05
-3.08322e-07
-1.73226e-05
-3.31649e-07
-1.71494e-05
-3.44935e-07
-1.69711e-05
-3.52638e-07
-1.67871e-05
-3.68345e-07
-1.65901e-05
-3.94704e-07
-1.63814e-05
-4.18628e-07
-1.61645e-05
-4.31941e-07
-1.59421e-05
-4.40902e-07
-1.57116e-05
-4.56065e-07
-1.54726e-05
-4.79144e-07
-1.52215e-05
-5.04767e-07
-1.49591e-05
-5.23472e-07
-1.46883e-05
-5.39393e-07
-1.44064e-05
-5.60358e-07
-1.41135e-05
-5.83511e-07
-1.38143e-05
-5.98297e-07
-1.35067e-05
-6.10425e-07
-1.31895e-05
-6.30709e-07
-1.28612e-05
-6.57582e-07
-1.25164e-05
-6.92517e-07
-1.21567e-05
-7.21144e-07
-1.17852e-05
-7.3938e-07
-1.14034e-05
-7.57044e-07
-1.10144e-05
-7.72599e-07
-1.06206e-05
-7.92662e-07
-1.02139e-05
-8.20305e-07
-9.79196e-06
-8.50708e-07
-9.35312e-06
-8.78926e-07
-8.90054e-06
-8.96967e-07
-8.44053e-06
-9.12417e-07
-7.9763e-06
-9.26105e-07
-7.50561e-06
-9.45276e-07
-7.02222e-06
-9.75725e-07
-6.52425e-06
-1.0047e-06
-6.01967e-06
-1.01745e-06
-5.51437e-06
-1.01393e-06
-5.00573e-06
-1.0151e-06
-4.4909e-06
-1.0258e-06
-3.97163e-06
-1.0393e-06
-3.45325e-06
-1.04704e-06
-2.93897e-06
-1.04152e-06
-2.42987e-06
-1.02664e-06
-1.92482e-06
-1.0113e-06
-1.42404e-06
-1.001e-06
-9.30637e-07
-9.91546e-07
-4.49823e-07
-9.68965e-07
1.44328e-08
-9.31577e-07
4.67146e-07
-8.9878e-07
9.11328e-07
-8.82234e-07
1.34608e-06
-8.68254e-07
1.76919e-06
-8.47607e-07
2.18028e-06
-8.22753e-07
2.57756e-06
-7.90016e-07
2.961e-06
-7.59175e-07
3.33312e-06
-7.39103e-07
3.69778e-06
-7.27716e-07
4.05578e-06
-7.16851e-07
4.40484e-06
-6.99938e-07
4.7445e-06
-6.78789e-07
5.07373e-06
-6.53793e-07
5.39305e-06
-6.34025e-07
5.70356e-06
-6.18984e-07
6.00756e-06
-6.06935e-07
6.30524e-06
-5.96361e-07
6.59563e-06
-5.82191e-07
6.87761e-06
-5.63192e-07
7.15064e-06
-5.43139e-07
7.41626e-06
-5.29497e-07
7.67623e-06
-5.18771e-07
7.93086e-06
-5.07679e-07
8.17994e-06
-4.96078e-07
8.42143e-06
-4.82256e-07
8.65479e-06
-4.66271e-07
8.87974e-06
-4.50923e-07
9.09755e-06
-4.37232e-07
9.30938e-06
-4.23672e-07
9.51624e-06
-4.11161e-07
9.71755e-06
-3.99843e-07
9.91264e-06
-3.88289e-07
1.01007e-05
-3.76529e-07
1.02816e-05
-3.63513e-07
1.0455e-05
-3.47583e-07
1.06219e-05
-3.31101e-07
1.07834e-05
-3.20842e-07
1.09394e-05
-3.11678e-07
1.10886e-05
-2.9888e-07
1.123e-05
-2.84121e-07
1.13641e-05
-2.69115e-07
1.14925e-05
-2.55383e-07
1.16152e-05
-2.43577e-07
1.17314e-05
-2.31119e-07
1.18407e-05
-2.17631e-07
1.19421e-05
-2.03257e-07
1.20354e-05
-1.87976e-07
1.21226e-05
-1.74688e-07
1.22046e-05
-1.62534e-07
1.22801e-05
-1.49891e-07
1.23488e-05
-1.37215e-07
1.24099e-05
-1.23018e-07
1.24624e-05
-1.06468e-07
1.25078e-05
-8.9946e-08
1.25466e-05
-7.62928e-08
1.25798e-05
-6.53968e-08
1.26065e-05
-5.33792e-08
1.26258e-05
-3.94405e-08
1.26377e-05
-2.48996e-08
1.26421e-05
-9.69039e-09
1.26397e-05
5.52437e-09
1.26306e-05
1.91445e-08
1.26146e-05
3.23362e-08
1.25916e-05
4.56941e-08
1.2562e-05
5.86531e-08
1.2526e-05
7.15379e-08
1.24839e-05
8.3781e-08
1.24351e-05
9.68135e-08
1.23785e-05
1.12438e-07
1.23151e-05
1.2703e-07
1.22464e-05
1.37947e-07
1.2172e-05
1.48521e-07
1.20913e-05
1.60676e-07
1.20041e-05
1.73199e-07
1.1911e-05
1.84942e-07
1.18123e-05
1.97044e-07
1.17077e-05
2.09327e-07
1.15978e-05
2.20049e-07
1.14827e-05
2.29921e-07
1.13619e-05
2.4038e-07
1.1236e-05
2.50238e-07
1.11055e-05
2.59987e-07
1.09704e-05
2.70611e-07
1.08307e-05
2.79757e-07
1.0686e-05
2.89001e-07
1.05363e-05
2.98147e-07
1.03829e-05
3.05042e-07
1.02266e-05
3.11941e-07
1.00669e-05
3.20378e-07
9.90293e-06
3.2801e-07
9.7346e-06
3.35271e-07
9.56388e-06
3.4024e-07
9.39148e-06
3.45006e-07
9.2164e-06
3.50682e-07
9.03804e-06
3.56274e-07
8.85751e-06
3.59934e-07
8.67581e-06
3.621e-07
8.49289e-06
3.65295e-07
8.3086e-06
3.69358e-07
8.12204e-06
3.73172e-07
7.93452e-06
3.74043e-07
7.7472e-06
3.73364e-07
7.55997e-06
3.74026e-07
7.37247e-06
3.75356e-07
7.18425e-06
3.76069e-07
6.99512e-06
3.76736e-07
6.80597e-06
3.76371e-07
6.61732e-06
3.76012e-07
6.42895e-06
3.76726e-07
6.2405e-06
3.76858e-07
6.05147e-06
3.76778e-07
5.86134e-06
3.77915e-07
5.67043e-06
3.80059e-07
5.47911e-06
3.82385e-07
5.28729e-06
3.83477e-07
5.09461e-06
3.84373e-07
4.90038e-06
3.86613e-07
4.70462e-06
3.90177e-07
4.50758e-06
3.94728e-07
4.30935e-06
3.97821e-07
4.11045e-06
3.98648e-07
3.91114e-06
3.98581e-07
3.71137e-06
3.98896e-07
3.51165e-06
3.99177e-07
3.31245e-06
3.99084e-07
3.11373e-06
3.99023e-07
2.9154e-06
3.97816e-07
2.71777e-06
3.9536e-07
2.52167e-06
3.9205e-07
2.3273e-06
3.88527e-07
2.13449e-06
3.85896e-07
1.94432e-06
3.81913e-07
1.75715e-06
3.75907e-07
1.57268e-06
3.69457e-07
1.39118e-06
3.62855e-07
1.21291e-06
3.56638e-07
1.03828e-06
3.50349e-07
8.6751e-07
3.43055e-07
7.00668e-07
3.34377e-07
5.37907e-07
3.25455e-07
3.79494e-07
3.17399e-07
2.25467e-07
3.09032e-07
7.56237e-08
2.99908e-07
-6.99225e-08
2.90646e-07
-2.10648e-07
2.81055e-07
-3.46412e-07
2.71381e-07
-4.77426e-07
2.61842e-07
-6.03853e-07
2.52509e-07
-7.25719e-07
2.43261e-07
-8.42836e-07
2.33858e-07
-9.55279e-07
2.24825e-07
-1.06307e-06
2.15816e-07
-1.16627e-06
2.06733e-07
-1.26497e-06
1.97372e-07
-1.35909e-06
1.88006e-07
-1.44867e-06
1.78795e-07
-1.53371e-06
1.69937e-07
-1.61417e-06
1.61036e-07
-1.69007e-06
1.5183e-07
-1.76122e-06
1.42158e-07
-1.82764e-06
1.32651e-07
-1.88949e-06
1.23661e-07
-1.94695e-06
1.14866e-07
-2.00008e-06
1.06044e-07
-2.04868e-06
9.70963e-08
-2.09261e-06
8.82618e-08
-2.13208e-06
7.97009e-08
-2.16727e-06
7.08912e-08
-2.19824e-06
6.19784e-08
-2.22475e-06
5.29382e-08
-2.2471e-06
4.46198e-08
-2.26532e-06
3.643e-08
-2.27952e-06
2.84564e-08
-2.28961e-06
2.06188e-08
-2.29564e-06
1.24629e-08
-2.29788e-06
4.54509e-09
-2.29647e-06
-2.89859e-09
-2.29124e-06
-9.95069e-09
-2.28224e-06
-1.71968e-08
-2.26991e-06
-2.4232e-08
-2.25451e-06
-3.08716e-08
-2.236e-06
-3.70695e-08
-2.21419e-06
-4.36061e-08
-2.18931e-06
-4.95614e-08
-2.16143e-06
-5.50195e-08
-2.13089e-06
-6.01886e-08
-2.09829e-06
-6.48304e-08
-2.06307e-06
-7.0247e-08
-2.02549e-06
-7.53407e-08
-1.98557e-06
-7.99807e-08
-1.94348e-06
-8.39544e-08
-1.89889e-06
-8.8642e-08
-1.85302e-06
-9.12295e-08
-1.80501e-06
-9.61115e-08
-1.75615e-06
-9.86893e-08
-1.70537e-06
-1.03068e-07
-1.65149e-06
-1.07418e-07
-1.59641e-06
-1.09463e-07
-1.53817e-06
-1.13899e-07
-1.48094e-06
-1.12572e-07
-1.42206e-06
-1.17176e-07
-1.3674e-06
-1.1296e-07
-1.31389e-06
-1.11978e-07
-1.25236e-06
-1.20695e-07
-1.1887e-06
-1.19598e-07
-1.12212e-06
-1.1979e-07
-1.05562e-06
-1.27601e-07
-1.02122e-06
-9.37022e-08
-9.96878e-07
-8.39566e-08
-9.34681e-07
-1.27696e-07
-8.5973e-07
-1.10834e-07
-7.31761e-07
-1.55068e-07
-5.93304e-07
-2.02446e-07
-3.53237e-07
-2.84049e-07
-7.22665e-08
-3.68038e-07
1.32262e-07
-3.18787e-07
2.58495e-07
-3.55789e-07
3.12536e-07
-3.46987e-07
3.8769e-07
-2.84399e-07
4.58477e-07
-2.39305e-07
5.49129e-07
-2.15356e-07
6.3518e-07
-1.86452e-07
7.32092e-07
-1.81948e-07
8.23244e-07
-1.75136e-07
9.08469e-07
-1.65089e-07
9.46173e-07
-1.14538e-07
9.56301e-07
-7.85365e-08
1.01844e-06
-1.36543e-07
1.09801e-06
-1.06383e-07
1.26168e-06
-1.7e-07
1.4412e-06
-2.31911e-07
1.77552e-06
-3.6419e-07
2.17632e-06
-4.90685e-07
2.48323e-06
-4.36844e-07
2.66566e-06
-4.89199e-07
2.73119e-06
-4.73898e-07
2.82048e-06
-3.88865e-07
2.90978e-06
-3.40495e-07
2.99978e-06
-2.57972e-07
3.07003e-06
-2.15038e-07
3.14226e-06
-1.87409e-07
3.21531e-06
-1.72639e-07
3.29563e-06
-1.58421e-07
3.37591e-06
-1.33282e-07
3.4833e-06
-1.6e-07
3.53111e-06
-9.69032e-08
3.468e-06
2.62118e-08
3.42885e-06
-2.73788e-08
3.40507e-06
3.53738e-09
3.51155e-06
-2.76943e-08
3.83369e-06
-2.92467e-07
4.47346e-06
-5.81906e-07
5.45846e-06
-9.77308e-07
6.42776e-06
-1.17991e-06
7.24029e-06
-1.24332e-06
7.77087e-06
-1.36747e-06
8.02948e-06
-1.30013e-06
8.25482e-06
-1.15552e-06
8.47415e-06
-9.60931e-07
8.69998e-06
-7.72622e-07
8.91617e-06
-6.26094e-07
9.11672e-06
-5.2247e-07
9.30152e-06
-4.50431e-07
9.47191e-06
-3.91944e-07
9.62743e-06
-3.43553e-07
9.77157e-06
-3.07212e-07
9.90525e-06
-2.81604e-07
1.00279e-05
-2.55576e-07
1.01407e-05
-2.31336e-07
1.0246e-05
-2.15446e-07
1.03441e-05
-1.99587e-07
1.04357e-05
-1.84084e-07
1.05223e-05
-1.75437e-07
1.06037e-05
-1.63874e-07
1.06807e-05
-1.5283e-07
1.07534e-05
-1.43771e-07
1.08229e-05
-1.402e-07
1.08886e-05
-1.32208e-07
1.09505e-05
-1.22365e-07
1.1009e-05
-1.14915e-07
1.10649e-05
-1.10016e-07
1.11179e-05
-1.05476e-07
1.11684e-05
-1.00871e-07
1.12168e-05
-9.62672e-08
1.12633e-05
-9.25562e-08
1.1307e-05
-8.71733e-08
1.13486e-05
-8.33528e-08
1.13887e-05
-7.72005e-08
1.14275e-05
-7.56927e-08
1.14653e-05
-7.64287e-08
1.15019e-05
-7.57434e-08
1.15372e-05
-7.36678e-08
1.15714e-05
-7.09366e-08
1.16048e-05
-6.81647e-08
1.16368e-05
-6.51316e-08
1.16679e-05
-6.27312e-08
1.16978e-05
-6.08095e-08
1.17267e-05
-5.86262e-08
1.17541e-05
-5.59352e-08
1.17804e-05
-5.31328e-08
1.18056e-05
-5.35826e-08
1.18296e-05
-5.04716e-08
1.18525e-05
-4.55012e-08
1.18746e-05
-4.25356e-08
1.18959e-05
-4.10211e-08
1.19164e-05
-3.99716e-08
1.19362e-05
-3.92061e-08
1.19554e-05
-3.85534e-08
1.19741e-05
-3.78661e-08
1.19923e-05
-3.69876e-08
1.201e-05
-3.57141e-08
1.20269e-05
-3.40777e-08
1.20431e-05
-3.24547e-08
1.20588e-05
-3.13356e-08
1.20741e-05
-3.08038e-08
1.2089e-05
-3.04149e-08
1.21032e-05
-2.93597e-08
1.21164e-05
-2.73027e-08
1.2129e-05
-2.54256e-08
1.21416e-05
-2.47948e-08
1.21544e-05
-2.50659e-08
1.21666e-05
-2.4925e-08
1.21779e-05
-2.3618e-08
1.21888e-05
-2.17798e-08
1.22003e-05
-2.17676e-08
1.22118e-05
-2.20318e-08
1.22227e-05
-2.21432e-08
1.22329e-05
-1.89895e-08
1.22433e-05
-2.05632e-08
1.22548e-05
-2.45093e-08
1.22656e-05
-2.77746e-08
1.22757e-05
-2.5304e-08
1.22853e-05
-2.21666e-08
1.22948e-05
-2.05898e-08
1.23042e-05
-2.03737e-08
1.23134e-05
-2.06803e-08
-2.04355e-08
-1.38914e-05
-6.18499e-06
-1.27074e-05
-6.76747e-06
-1.19432e-05
-7.33322e-06
-1.18549e-05
-7.25998e-06
-1.1969e-05
-6.47643e-06
-1.23784e-05
-5.26165e-06
-1.32556e-05
-3.53876e-06
-1.50107e-05
-1.73568e-06
-1.77867e-05
-2.53695e-07
-2.12756e-05
5.45562e-07
-2.4951e-05
8.37684e-07
-2.82476e-05
9.5886e-07
-3.08364e-05
1.62409e-06
-3.27564e-05
3.43545e-06
-3.41198e-05
6.35207e-06
-3.4751e-05
8.9459e-06
-3.47738e-05
1.01425e-05
-3.48007e-05
1.05802e-05
-3.46761e-05
1.06476e-05
-3.43576e-05
9.97336e-06
-3.5105e-05
8.38321e-06
-3.68063e-05
7.49458e-06
-3.86224e-05
7.22374e-06
-4.03049e-05
6.54896e-06
-4.22078e-05
5.65742e-06
-4.39999e-05
4.96177e-06
-4.53866e-05
4.68971e-06
-4.66905e-05
4.81036e-06
-4.81551e-05
5.26208e-06
-4.97623e-05
5.68119e-06
-5.15252e-05
5.75578e-06
-5.32607e-05
5.3257e-06
-5.46687e-05
4.66408e-06
-5.5626e-05
4.01702e-06
-5.64501e-05
3.35762e-06
-5.76276e-05
2.95753e-06
-5.89914e-05
2.79954e-06
-6.0227e-05
2.87585e-06
-6.11983e-05
3.18784e-06
-6.18867e-05
3.53697e-06
-6.25626e-05
3.68232e-06
-6.34449e-05
3.44136e-06
-6.45096e-05
2.79916e-06
-6.55758e-05
2.16619e-06
-6.66023e-05
2.10388e-06
-6.75572e-05
2.42242e-06
-6.83658e-05
2.82407e-06
-6.91309e-05
3.16029e-06
-7.00626e-05
3.17699e-06
-7.11089e-05
2.85004e-06
-7.21382e-05
2.24634e-06
-7.29701e-05
1.57465e-06
-7.36008e-05
1.14609e-06
-7.41333e-05
8.97895e-07
-7.46528e-05
6.7036e-07
-7.51134e-05
5.6685e-07
-7.54922e-05
7.20304e-07
-7.5636e-05
9.25708e-07
-7.55665e-05
9.18562e-07
-7.52338e-05
5.12331e-07
-7.48601e-05
-2.12929e-08
-7.46229e-05
-1.03764e-07
-7.46892e-05
2.94162e-07
-7.49405e-05
8.35087e-07
-7.51619e-05
9.03139e-07
-7.5307e-05
5.49758e-07
-7.54087e-05
-4.30608e-07
-7.54301e-05
-1.6452e-06
-7.515e-05
-2.76692e-06
-7.45676e-05