/*--------------------------------*- C++ -*----------------------------------*\
| =========                 |                                                 |
| \\      /  F ield         | OpenFOAM: The Open Source CFD Toolbox           |
|  \\    /   O peration     | Version:  v2006                                 |
|   \\  /    A nd           | Website:  www.openfoam.com                      |
|    \\/     M anipulation  |                                                 |
\*---------------------------------------------------------------------------*/
FoamFile
{
    version     2.0;
    format      ascii;
    class       volScalarField;
    location    "6.1";
    object      k;
}
// * * * * * * * * * * * * * * * * * * * * * * * * * * * * * * * * * * * * * //

dimensions      [0 2 -2 0 0 0 0];


internalField   nonuniform List<scalar> 
33000
(
3.29237e-08
3.24296e-08
3.23003e-08
3.27267e-08
3.40423e-08
3.58327e-08
3.84063e-08
4.14905e-08
4.50856e-08
4.94787e-08
5.4735e-08
6.0259e-08
6.52208e-08
6.77349e-08
6.9853e-08
7.44354e-08
8.47386e-08
1.11231e-07
1.58475e-07
2.10549e-07
2.51896e-07
2.78833e-07
2.95542e-07
3.05372e-07
3.10905e-07
3.1429e-07
3.16895e-07
3.19243e-07
3.21242e-07
3.22544e-07
3.2287e-07
3.22133e-07
3.20375e-07
3.17754e-07
3.14679e-07
3.11881e-07
3.10214e-07
3.10225e-07
3.11604e-07
3.13024e-07
3.12985e-07
3.11037e-07
3.07895e-07
3.04843e-07
3.03037e-07
3.02801e-07
3.03234e-07
3.0283e-07
3.00828e-07
2.97379e-07
2.93157e-07
2.88958e-07
2.85396e-07
2.82745e-07
2.81151e-07
2.81495e-07
2.84569e-07
2.89121e-07
2.92755e-07
2.93923e-07
2.92196e-07
2.88232e-07
2.83222e-07
2.77885e-07
2.70813e-07
2.6047e-07
2.46652e-07
2.31236e-07
2.17187e-07
2.0508e-07
1.94314e-07
1.84555e-07
1.75392e-07
1.66626e-07
1.58998e-07
1.53441e-07
1.51276e-07
1.53609e-07
1.63788e-07
1.77031e-07
1.86271e-07
1.94251e-07
1.9991e-07
2.08319e-07
2.1624e-07
2.21554e-07
2.24159e-07
2.24746e-07
2.23851e-07
2.21626e-07
2.17976e-07
2.13048e-07
2.05949e-07
1.97924e-07
1.88334e-07
1.77573e-07
1.66497e-07
1.58059e-07
1.52669e-07
1.53733e-07
1.57285e-07
1.58608e-07
1.58308e-07
1.58007e-07
1.59219e-07
1.60997e-07
1.61548e-07
1.60201e-07
1.57626e-07
1.54788e-07
1.5223e-07
1.49952e-07
1.47212e-07
1.43268e-07
1.38303e-07
1.34135e-07
1.31737e-07
1.34667e-07
1.38431e-07
1.38691e-07
1.38073e-07
1.37723e-07
1.37866e-07
1.3862e-07
1.39449e-07
1.39971e-07
1.4021e-07
1.40252e-07
1.40279e-07
1.4042e-07
1.40591e-07
1.40684e-07
1.40686e-07
1.40618e-07
1.40507e-07
1.40352e-07
1.40211e-07
1.40108e-07
1.40027e-07
1.39944e-07
1.39839e-07
1.39705e-07
1.3956e-07
1.39424e-07
1.39263e-07
1.39018e-07
1.38689e-07
1.38345e-07
1.38046e-07
1.37802e-07
1.37557e-07
1.37225e-07
1.36806e-07
1.36392e-07
1.36038e-07
1.35711e-07
1.35364e-07
1.34971e-07
1.34551e-07
1.34121e-07
1.33681e-07
1.33223e-07
1.32766e-07
1.32332e-07
1.31913e-07
1.31442e-07
1.30905e-07
1.30387e-07
1.29916e-07
1.29413e-07
1.28806e-07
1.28152e-07
1.2755e-07
1.27002e-07
1.26435e-07
1.25787e-07
1.25098e-07
1.24483e-07
1.23941e-07
1.23408e-07
1.22863e-07
1.22362e-07
1.21959e-07
1.21564e-07
1.21123e-07
1.20679e-07
1.20309e-07
1.20048e-07
1.19828e-07
1.19602e-07
1.19353e-07
1.19081e-07
1.18809e-07
1.18551e-07
1.18313e-07
1.1803e-07
1.17687e-07
1.17278e-07
1.1679e-07
1.16351e-07
1.16036e-07
1.15853e-07
1.15727e-07
1.1562e-07
1.15545e-07
1.1555e-07
1.15687e-07
1.15947e-07
1.16288e-07
1.16669e-07
1.17121e-07
1.17712e-07
1.18431e-07
1.19162e-07
1.19807e-07
1.20402e-07
1.20971e-07
1.21528e-07
1.22047e-07
1.22455e-07
1.22736e-07
1.2291e-07
1.23026e-07
1.23109e-07
1.23162e-07
1.23149e-07
1.23039e-07
1.22848e-07
1.22588e-07
1.22287e-07
1.21971e-07
1.21635e-07
1.21246e-07
1.20794e-07
1.20293e-07
1.19761e-07
1.19232e-07
1.18716e-07
1.18204e-07
1.1768e-07
1.17149e-07
1.16617e-07
1.16076e-07
1.15517e-07
1.14943e-07
1.14365e-07
1.13798e-07
1.13245e-07
1.12675e-07
1.12072e-07
1.11461e-07
1.10858e-07
1.1026e-07
1.0966e-07
1.09048e-07
1.08422e-07
1.07788e-07
1.07146e-07
1.06502e-07
1.05856e-07
1.052e-07
1.04529e-07
1.03843e-07
1.0315e-07
1.0246e-07
1.01774e-07
1.0108e-07
1.00366e-07
9.96269e-08
9.8876e-08
9.81247e-08
9.73776e-08
9.66301e-08
9.58698e-08
9.50894e-08
9.42928e-08
9.34867e-08
9.26724e-08
9.18472e-08
9.10115e-08
9.01715e-08
8.93294e-08
8.84748e-08
8.75974e-08
8.67011e-08
8.57941e-08
8.48813e-08
8.39629e-08
8.30355e-08
8.20916e-08
8.11232e-08
8.01328e-08
7.91265e-08
7.81086e-08
7.70813e-08
7.60362e-08
7.49618e-08
7.38638e-08
7.2744e-08
7.16e-08
7.04363e-08
6.92451e-08
6.80175e-08
6.67494e-08
6.54226e-08
6.40227e-08
6.26143e-08
6.12384e-08
5.99107e-08
5.86384e-08
5.74279e-08
5.62752e-08
5.51744e-08
5.41247e-08
5.31325e-08
5.22038e-08
5.13335e-08
5.05176e-08
4.97585e-08
4.9057e-08
4.84154e-08
4.78294e-08
4.72944e-08
4.68142e-08
4.63918e-08
4.60237e-08
4.56988e-08
4.54101e-08
4.51589e-08
4.4941e-08
4.47523e-08
4.45866e-08
4.44433e-08
4.4336e-08
4.42603e-08
4.42071e-08
4.41645e-08
4.41254e-08
4.40844e-08
4.40388e-08
4.39911e-08
4.39441e-08
4.39e-08
4.38606e-08
4.38233e-08
4.37856e-08
4.37488e-08
4.37146e-08
4.3683e-08
4.36526e-08
4.36207e-08
4.35853e-08
4.35469e-08
4.35077e-08
4.34663e-08
4.34201e-08
4.3369e-08
4.33088e-08
4.32307e-08
4.31324e-08
4.30143e-08
4.28778e-08
4.2723e-08
4.25523e-08
4.23659e-08
4.21649e-08
4.19492e-08
4.17202e-08
4.1479e-08
4.12269e-08
4.09644e-08
4.06914e-08
4.04086e-08
4.01173e-08
3.9819e-08
3.95143e-08
3.92033e-08
3.88871e-08
3.85667e-08
3.82426e-08
3.7914e-08
3.75817e-08
3.72469e-08
3.69106e-08
3.65738e-08
3.62357e-08
3.58981e-08
3.55594e-08
3.5221e-08
3.48837e-08
3.45488e-08
3.42142e-08
3.38816e-08
3.35511e-08
3.32238e-08
3.28988e-08
3.25772e-08
3.22589e-08
3.19432e-08
3.16296e-08
3.13192e-08
3.10117e-08
3.07097e-08
3.04106e-08
3.01162e-08
2.98263e-08
2.95386e-08
2.92598e-08
2.8983e-08
2.87176e-08
2.84521e-08
2.81956e-08
2.7939e-08
2.76828e-08
2.74393e-08
2.71952e-08
2.69508e-08
2.67193e-08
2.64609e-08
2.61915e-08
2.59835e-08
2.5733e-08
2.55186e-08
2.53549e-08
2.49258e-08
2.45428e-08
2.45074e-08
2.40191e-08
2.4151e-08
2.39472e-08
2.52833e-08
2.58823e-08
2.65775e-08
2.68398e-08
2.71018e-08
2.71155e-08
2.71707e-08
2.71184e-08
2.71269e-08
2.70499e-08
2.69898e-08
2.69547e-08
2.66787e-08
2.64223e-08
2.64061e-08
2.60495e-08
2.61453e-08
2.58563e-08
2.65483e-08
2.69078e-08
2.71987e-08
2.73016e-08
2.73024e-08
2.7243e-08
2.71526e-08
2.70412e-08
2.69174e-08
2.672e-08
2.65155e-08
2.63542e-08
2.61101e-08
2.59741e-08
2.57789e-08
2.52503e-08
2.48099e-08
2.46906e-08
2.39905e-08
2.43566e-08
2.4272e-08
2.6137e-08
2.86794e-08
3.1287e-08
3.36522e-08
3.56248e-08
3.71979e-08
3.84274e-08
3.93905e-08
4.01359e-08
4.07049e-08
4.11327e-08
4.1466e-08
4.1728e-08
4.19248e-08
4.20782e-08
4.2196e-08
4.22759e-08
4.23366e-08
4.23788e-08
4.24011e-08
4.24018e-08
4.23965e-08
4.23848e-08
4.23609e-08
4.23257e-08
4.22822e-08
4.22329e-08
4.21782e-08
4.21175e-08
4.20518e-08
4.19799e-08
4.1905e-08
4.18187e-08
4.17233e-08
4.16238e-08
4.15208e-08
4.14142e-08
4.1304e-08
4.11905e-08
4.10738e-08
4.0955e-08
4.08353e-08
4.07152e-08
4.05953e-08
4.0473e-08
4.03542e-08
4.02374e-08
4.01188e-08
3.99981e-08
3.98755e-08
3.97508e-08
3.96239e-08
3.94951e-08
3.93647e-08
3.92336e-08
3.91025e-08
3.89719e-08
3.88412e-08
3.871e-08
3.8578e-08
3.84463e-08
3.83163e-08
3.8189e-08
3.80638e-08
3.79394e-08
3.78156e-08
3.76931e-08
3.75732e-08
3.7455e-08
3.73372e-08
3.72189e-08
3.71016e-08
3.69837e-08
3.68659e-08
3.67476e-08
3.66366e-08
3.65117e-08
3.64508e-08
3.61922e-08
3.59511e-08
3.44633e-08
2.15267e-08
1.95406e-08
1.96043e-08
2.1473e-08
2.33215e-08
2.64164e-08
3.12871e-08
3.90706e-08
4.99611e-08
6.25296e-08
7.7746e-08
9.55278e-08
1.15098e-07
1.34245e-07
1.47486e-07
1.54578e-07
1.60037e-07
1.66372e-07
1.73208e-07
1.77045e-07
1.67698e-07
1.44089e-07
1.19926e-07
9.92596e-08
8.11561e-08
6.91555e-08
6.47266e-08
6.37613e-08
6.36614e-08
6.30989e-08
6.09475e-08
5.79681e-08
5.5665e-08
5.33629e-08
4.93889e-08
4.41168e-08
4.09682e-08
4.15533e-08
4.46623e-08
4.79731e-08
4.84272e-08
4.51378e-08
4.02594e-08
3.65715e-08
3.56598e-08
3.68653e-08
3.87497e-08
3.94745e-08
3.8001e-08
3.54005e-08
3.27185e-08
3.10046e-08
3.03249e-08
2.99832e-08
2.98138e-08
3.00374e-08
3.06649e-08
3.20889e-08
3.37445e-08
3.43434e-08
3.35815e-08
3.22917e-08
3.18576e-08
3.19631e-08
3.20124e-08
3.16614e-08
3.14323e-08
3.19181e-08
3.32734e-08
3.57887e-08
3.95206e-08
4.44291e-08
5.0203e-08
5.59265e-08
6.05311e-08
6.44796e-08
6.86303e-08
7.39475e-08
8.1e-08
8.98519e-08
1.0021e-07
1.14798e-07
1.26192e-07
1.27678e-07
1.16216e-07
1.10103e-07
1.02665e-07
9.0626e-08
6.40229e-08
3.99823e-08
2.89205e-08
2.49801e-08
2.56028e-08
2.87313e-08
3.38753e-08
4.06052e-08
4.8159e-08
5.53749e-08
5.944e-08
5.96258e-08
5.50421e-08
4.71501e-08
3.9557e-08
3.12238e-08
2.75988e-08
2.27839e-08
1.90826e-08
1.71225e-08
1.60471e-08
1.56145e-08
1.52864e-08
1.56746e-08
1.65576e-08
1.80899e-08
1.9733e-08
2.08391e-08
2.07842e-08
2.00106e-08
1.91119e-08
1.84986e-08
1.80564e-08
1.70752e-08
1.75291e-08
1.65163e-08
1.55877e-08
1.55433e-08
1.52499e-08
1.50846e-08
1.5122e-08
1.49849e-08
1.48863e-08
1.48854e-08
1.48231e-08
1.48481e-08
1.48793e-08
1.49129e-08
1.4941e-08
1.4959e-08
1.4999e-08
1.50072e-08
1.50241e-08
1.50466e-08
1.50775e-08
1.51045e-08
1.513e-08
1.51528e-08
1.51835e-08
1.52299e-08
1.52854e-08
1.53427e-08
1.53967e-08
1.54461e-08
1.54943e-08
1.55464e-08
1.56026e-08
1.56585e-08
1.57117e-08
1.57614e-08
1.58076e-08
1.58493e-08
1.58871e-08
1.59245e-08
1.59638e-08
1.60019e-08
1.60343e-08
1.60609e-08
1.6087e-08
1.61147e-08
1.61376e-08
1.61501e-08
1.61571e-08
1.61689e-08
1.61868e-08
1.61991e-08
1.61961e-08
1.61814e-08
1.61689e-08
1.61667e-08
1.61651e-08
1.61535e-08
1.61326e-08
1.61119e-08
1.60932e-08
1.60571e-08
1.59996e-08
1.59448e-08
1.59086e-08
1.58816e-08
1.58444e-08
1.57875e-08
1.57174e-08
1.56476e-08
1.55907e-08
1.55426e-08
1.5492e-08
1.54288e-08
1.53484e-08
1.52548e-08
1.51634e-08
1.50926e-08
1.50427e-08
1.49936e-08
1.49234e-08
1.48277e-08
1.47263e-08
1.46404e-08
1.45721e-08
1.45087e-08
1.44324e-08
1.43401e-08
1.42532e-08
1.41893e-08
1.41298e-08
1.40458e-08
1.39396e-08
1.38373e-08
1.37631e-08
1.37141e-08
1.36632e-08
1.35865e-08
1.34851e-08
1.33823e-08
1.33e-08
1.32452e-08
1.32002e-08
1.3144e-08
1.30726e-08
1.2992e-08
1.2914e-08
1.28546e-08
1.28171e-08
1.27823e-08
1.27358e-08
1.26815e-08
1.26256e-08
1.25761e-08
1.25409e-08
1.25188e-08
1.24977e-08
1.24723e-08
1.24506e-08
1.24342e-08
1.24153e-08
1.23894e-08
1.23643e-08
1.23491e-08
1.2354e-08
1.2365e-08
1.23526e-08
1.23252e-08
1.23049e-08
1.22985e-08
1.23018e-08
1.2302e-08
1.22925e-08
1.22779e-08
1.22617e-08
1.22485e-08
1.22419e-08
1.22369e-08
1.22272e-08
1.22091e-08
1.21872e-08
1.2174e-08
1.21761e-08
1.21871e-08
1.21907e-08
1.21698e-08
1.21396e-08
1.21203e-08
1.21131e-08
1.21181e-08
1.21307e-08
1.21333e-08
1.21202e-08
1.21048e-08
1.20927e-08
1.20818e-08
1.20693e-08
1.20555e-08
1.20512e-08
1.20582e-08
1.20528e-08
1.20288e-08
1.20038e-08
1.19863e-08
1.1973e-08
1.19631e-08
1.19574e-08
1.19465e-08
1.19242e-08
1.18976e-08
1.18742e-08
1.18536e-08
1.18393e-08
1.18258e-08
1.1801e-08
1.17729e-08
1.17448e-08
1.1714e-08
1.16893e-08
1.16661e-08
1.16335e-08
1.15977e-08
1.15609e-08
1.15271e-08
1.14913e-08
1.14522e-08
1.14113e-08
1.13721e-08
1.13403e-08
1.13108e-08
1.12777e-08
1.12394e-08
1.12029e-08
1.11737e-08
1.11471e-08
1.11182e-08
1.10905e-08
1.10645e-08
1.10427e-08
1.10242e-08
1.10031e-08
1.09819e-08
1.09646e-08
1.09521e-08
1.09412e-08
1.09271e-08
1.09129e-08
1.09021e-08
1.08957e-08
1.08925e-08
1.0885e-08
1.08726e-08
1.08586e-08
1.08459e-08
1.08346e-08
1.08236e-08
1.08121e-08
1.07969e-08
1.07794e-08
1.07621e-08
1.07455e-08
1.07313e-08
1.07162e-08
1.06969e-08
1.06766e-08
1.06576e-08
1.06414e-08
1.06262e-08
1.06097e-08
1.05912e-08
1.05735e-08
1.05593e-08
1.05452e-08
1.05297e-08
1.0515e-08
1.05016e-08
1.0489e-08
1.04765e-08
1.04647e-08
1.04537e-08
1.04433e-08
1.04338e-08
1.04246e-08
1.04155e-08
1.04064e-08
1.03979e-08
1.03899e-08
1.03826e-08
1.03755e-08
1.03681e-08
1.03607e-08
1.03539e-08
1.03476e-08
1.03414e-08
1.03354e-08
1.03297e-08
1.03244e-08
1.03193e-08
1.03137e-08
1.0308e-08
1.03026e-08
1.02977e-08
1.02931e-08
1.02885e-08
1.02841e-08
1.02796e-08
1.0275e-08
1.02707e-08
1.02669e-08
1.02627e-08
1.0258e-08
1.02535e-08
1.02491e-08
1.02445e-08
1.02399e-08
1.02356e-08
1.02312e-08
1.02262e-08
1.02213e-08
1.02162e-08
1.02115e-08
1.02068e-08
1.0202e-08
1.01971e-08
1.01918e-08
1.01861e-08
1.01807e-08
1.01763e-08
1.01714e-08
1.01674e-08
1.01625e-08
1.01575e-08
1.01516e-08
1.01483e-08
1.0147e-08
1.01456e-08
1.01478e-08
1.01426e-08
1.01346e-08
1.01413e-08
1.01707e-08
1.02085e-08
1.02555e-08
1.02216e-08
1.03349e-08
1.03443e-08
1.03056e-08
1.02285e-08
1.01992e-08
1.02067e-08
1.0162e-08
1.01447e-08
1.01223e-08
1.01062e-08
1.00949e-08
1.00882e-08
1.00716e-08
1.00828e-08
1.01317e-08
1.01765e-08
1.02371e-08
1.02075e-08
1.02549e-08
1.0265e-08
1.02448e-08
1.02158e-08
1.01955e-08
1.01956e-08
1.01508e-08
1.01242e-08
1.00966e-08
1.00942e-08
1.00934e-08
1.01025e-08
1.00936e-08
1.00979e-08
1.00809e-08
1.01743e-08
1.02133e-08
1.03136e-08
1.0535e-08
1.05821e-08
1.05456e-08
1.05599e-08
1.05687e-08
1.05998e-08
1.0641e-08
1.07083e-08
1.07579e-08
1.0737e-08
1.06533e-08
1.05483e-08
1.04498e-08
1.03733e-08
1.03174e-08
1.02757e-08
1.02447e-08
1.02218e-08
1.02046e-08
1.01915e-08
1.01821e-08
1.0176e-08
1.0172e-08
1.01699e-08
1.01695e-08
1.01701e-08
1.01711e-08
1.01724e-08
1.01751e-08
1.01783e-08
1.01815e-08
1.01846e-08
1.01875e-08
1.01904e-08
1.01934e-08
1.01965e-08
1.01997e-08
1.02031e-08
1.02065e-08
1.02071e-08
1.02062e-08
1.0206e-08
1.02066e-08
1.02078e-08
1.02097e-08
1.02115e-08
1.02129e-08
1.02144e-08
1.0216e-08
1.02178e-08
1.02192e-08
1.02192e-08
1.02223e-08
1.02268e-08
1.02297e-08
1.02306e-08
1.02305e-08
1.02296e-08
1.02285e-08
1.02276e-08
1.02273e-08
1.02278e-08
1.02289e-08
1.02299e-08
1.023e-08
1.02291e-08
1.0228e-08
1.0228e-08
1.02295e-08
1.02314e-08
1.0232e-08
1.02305e-08
1.02289e-08
1.0229e-08
1.02304e-08
1.02303e-08
1.02284e-08
1.02266e-08
1.02281e-08
1.02244e-08
1.02184e-08
1.02112e-08
1.02194e-08
1.02248e-08
1.02714e-08
1.03351e-08
1.04157e-08
1.04042e-08
1.4832e-08
1.39339e-08
1.42732e-08
1.52864e-08
1.6977e-08
1.99042e-08
2.49084e-08
3.29166e-08
4.4479e-08
5.91166e-08
7.54132e-08
9.1468e-08
1.05133e-07
1.14797e-07
1.19213e-07
1.25364e-07
1.29328e-07
1.27126e-07
1.22768e-07
1.14885e-07
9.60925e-08
7.58219e-08
6.00045e-08
4.79158e-08
3.87881e-08
3.29338e-08
2.97305e-08
2.79699e-08
2.69778e-08
2.62574e-08
2.53368e-08
2.41678e-08
2.29899e-08
2.18316e-08
2.05846e-08
1.951e-08
1.88368e-08
1.86528e-08
1.87976e-08
1.90011e-08
1.89429e-08
1.84476e-08
1.7665e-08
1.69655e-08
1.66357e-08
1.65994e-08
1.66759e-08
1.66863e-08
1.64679e-08
1.60609e-08
1.55817e-08
1.51656e-08
1.48867e-08
1.47351e-08
1.4668e-08
1.46815e-08
1.47912e-08
1.50136e-08
1.52809e-08
1.54597e-08
1.54915e-08
1.55042e-08
1.56267e-08
1.58275e-08
1.60039e-08
1.61491e-08
1.6298e-08
1.65324e-08
1.69445e-08
1.76714e-08
1.87602e-08
2.02541e-08
2.20836e-08
2.41332e-08
2.6312e-08
2.86242e-08
3.12486e-08
3.44463e-08
3.83242e-08
4.30067e-08
4.88403e-08
5.60253e-08
6.47333e-08
7.44685e-08
8.54003e-08
9.13186e-08
8.75991e-08
7.40917e-08
5.7815e-08
4.52165e-08
3.43223e-08
2.52134e-08
1.92392e-08
1.67083e-08
1.64207e-08
1.80747e-08
2.11572e-08
2.49377e-08
2.78303e-08
2.88119e-08
2.8014e-08
2.56367e-08
2.29059e-08
1.98642e-08
1.71127e-08
1.5053e-08
1.35113e-08
1.25021e-08
1.18256e-08
1.13646e-08
1.10256e-08
1.08545e-08
1.07904e-08
1.08302e-08
1.1029e-08
1.12447e-08
1.14189e-08
1.14826e-08
1.14256e-08
1.12903e-08
1.11396e-08
1.10062e-08
1.0925e-08
1.08525e-08
1.07621e-08
1.07287e-08
1.06379e-08
1.05696e-08
1.05555e-08
1.05403e-08
1.05301e-08
1.05275e-08
1.05329e-08
1.05285e-08
1.05293e-08
1.05346e-08
1.05395e-08
1.05416e-08
1.05497e-08
1.05552e-08
1.05596e-08
1.05645e-08
1.05694e-08
1.05749e-08
1.05812e-08
1.0587e-08
1.05927e-08
1.05995e-08
1.06082e-08
1.06179e-08
1.06268e-08
1.0634e-08
1.06403e-08
1.06476e-08
1.06562e-08
1.06646e-08
1.06717e-08
1.06779e-08
1.06839e-08
1.06897e-08
1.06948e-08
1.06992e-08
1.07033e-08
1.07072e-08
1.07101e-08
1.07117e-08
1.07133e-08
1.07154e-08
1.07167e-08
1.07158e-08
1.07134e-08
1.07118e-08
1.07114e-08
1.07101e-08
1.07057e-08
1.06991e-08
1.06927e-08
1.06874e-08
1.06817e-08
1.06747e-08
1.06669e-08
1.06594e-08
1.0651e-08
1.0639e-08
1.06241e-08
1.06095e-08
1.05977e-08
1.05879e-08
1.05777e-08
1.05655e-08
1.05512e-08
1.05359e-08
1.05217e-08
1.0509e-08
1.04972e-08
1.04854e-08
1.04721e-08
1.04567e-08
1.04412e-08
1.04284e-08
1.04188e-08
1.04096e-08
1.03981e-08
1.03842e-08
1.03704e-08
1.03587e-08
1.03489e-08
1.03393e-08
1.03286e-08
1.0317e-08
1.03068e-08
1.02988e-08
1.02908e-08
1.02806e-08
1.0269e-08
1.02583e-08
1.02502e-08
1.02443e-08
1.02387e-08
1.02311e-08
1.02218e-08
1.02125e-08
1.0205e-08
1.01997e-08
1.01953e-08
1.01906e-08
1.01849e-08
1.01788e-08
1.0173e-08
1.01684e-08
1.01653e-08
1.01626e-08
1.01594e-08
1.01557e-08
1.01519e-08
1.01487e-08
1.01465e-08
1.01454e-08
1.01444e-08
1.01431e-08
1.01418e-08
1.01406e-08
1.01394e-08
1.01382e-08
1.01372e-08
1.01367e-08
1.01372e-08
1.01379e-08
1.01374e-08
1.01363e-08
1.01356e-08
1.01356e-08
1.01361e-08
1.01363e-08
1.0136e-08
1.01355e-08
1.01351e-08
1.01349e-08
1.0135e-08
1.01348e-08
1.01342e-08
1.01332e-08
1.01323e-08
1.01318e-08
1.01322e-08
1.01328e-08
1.01329e-08
1.01316e-08
1.01299e-08
1.01288e-08
1.01285e-08
1.01287e-08
1.01292e-08
1.01293e-08
1.01287e-08
1.01279e-08
1.01272e-08
1.01265e-08
1.01257e-08
1.01249e-08
1.01247e-08
1.01251e-08
1.01248e-08
1.01235e-08
1.01221e-08
1.01211e-08
1.01205e-08
1.012e-08
1.01197e-08
1.01192e-08
1.0118e-08
1.01167e-08
1.01156e-08
1.01147e-08
1.0114e-08
1.01133e-08
1.01122e-08
1.0111e-08
1.01098e-08
1.01083e-08
1.0107e-08
1.01059e-08
1.01046e-08
1.0103e-08
1.01013e-08
1.00997e-08
1.00981e-08
1.00963e-08
1.00945e-08
1.00927e-08
1.00912e-08
1.00898e-08
1.00882e-08
1.00864e-08
1.00845e-08
1.0083e-08
1.00816e-08
1.00802e-08
1.00788e-08
1.00776e-08
1.00764e-08
1.00754e-08
1.00742e-08
1.00732e-08
1.00723e-08
1.00717e-08
1.00709e-08
1.00702e-08
1.00694e-08
1.00688e-08
1.00683e-08
1.00679e-08
1.00674e-08
1.00667e-08
1.00658e-08
1.00651e-08
1.00644e-08
1.00637e-08
1.0063e-08
1.00622e-08
1.00613e-08
1.00605e-08
1.00597e-08
1.00591e-08
1.00584e-08
1.00575e-08
1.00567e-08
1.0056e-08
1.00554e-08
1.00548e-08
1.00542e-08
1.00536e-08
1.0053e-08
1.00525e-08
1.00521e-08
1.00516e-08
1.00512e-08
1.00508e-08
1.00504e-08
1.005e-08
1.00497e-08
1.00493e-08
1.0049e-08
1.00487e-08
1.00484e-08
1.00482e-08
1.00479e-08
1.00476e-08
1.00473e-08
1.00471e-08
1.00469e-08
1.00467e-08
1.00465e-08
1.00463e-08
1.00461e-08
1.00459e-08
1.00457e-08
1.00455e-08
1.00453e-08
1.00451e-08
1.00449e-08
1.00447e-08
1.00445e-08
1.00443e-08
1.00441e-08
1.00439e-08
1.00437e-08
1.00435e-08
1.00433e-08
1.00431e-08
1.00429e-08
1.00427e-08
1.00425e-08
1.00423e-08
1.00421e-08
1.00419e-08
1.00417e-08
1.00414e-08
1.00413e-08
1.0041e-08
1.00408e-08
1.00405e-08
1.00403e-08
1.00401e-08
1.00399e-08
1.00397e-08
1.00393e-08
1.00391e-08
1.00391e-08
1.00387e-08
1.00385e-08
1.00383e-08
1.00384e-08
1.00387e-08
1.00387e-08
1.00389e-08
1.00388e-08
1.00377e-08
1.00383e-08
1.0039e-08
1.00396e-08
1.00399e-08
1.00387e-08
1.00386e-08
1.00384e-08
1.00384e-08
1.00392e-08
1.00401e-08
1.00404e-08
1.00411e-08
1.00416e-08
1.00405e-08
1.0039e-08
1.00378e-08
1.0036e-08
1.00367e-08
1.00365e-08
1.00364e-08
1.00365e-08
1.00366e-08
1.00363e-08
1.00362e-08
1.00363e-08
1.00364e-08
1.00368e-08
1.00373e-08
1.00374e-08
1.00377e-08
1.00378e-08
1.00374e-08
1.00367e-08
1.0036e-08
1.00355e-08
1.00352e-08
1.00349e-08
1.00346e-08
1.0035e-08
1.00354e-08
1.00362e-08
1.00402e-08
1.00438e-08
1.00456e-08
1.00506e-08
1.00518e-08
1.00513e-08
1.0052e-08
1.00559e-08
1.00624e-08
1.00714e-08
1.00791e-08
1.00798e-08
1.00728e-08
1.00627e-08
1.00534e-08
1.00464e-08
1.00416e-08
1.00383e-08
1.0036e-08
1.00344e-08
1.00332e-08
1.00322e-08
1.00315e-08
1.00309e-08
1.00305e-08
1.00302e-08
1.00301e-08
1.00302e-08
1.00303e-08
1.00305e-08
1.00306e-08
1.00308e-08
1.0031e-08
1.00312e-08
1.00314e-08
1.00315e-08
1.00316e-08
1.00317e-08
1.00318e-08
1.00319e-08
1.00321e-08
1.00321e-08
1.00319e-08
1.00318e-08
1.00318e-08
1.00318e-08
1.00319e-08
1.0032e-08
1.00321e-08
1.00322e-08
1.00323e-08
1.00324e-08
1.00324e-08
1.00324e-08
1.00324e-08
1.00325e-08
1.00326e-08
1.00325e-08
1.00325e-08
1.00324e-08
1.00324e-08
1.00323e-08
1.00323e-08
1.00324e-08
1.00324e-08
1.00324e-08
1.00323e-08
1.00322e-08
1.0032e-08
1.00318e-08
1.00318e-08
1.00319e-08
1.0032e-08
1.0032e-08
1.00319e-08
1.00318e-08
1.00318e-08
1.00318e-08
1.00318e-08
1.00317e-08
1.00316e-08
1.00315e-08
1.00314e-08
1.00314e-08
1.00311e-08
1.0032e-08
1.00331e-08
1.00343e-08
1.0036e-08
1.00382e-08
1.00372e-08
1.15036e-08
1.15681e-08
1.16932e-08
1.20252e-08
1.27333e-08
1.39343e-08
1.59213e-08
1.89071e-08
2.27199e-08
2.73971e-08
3.29294e-08
3.93362e-08
4.7178e-08
5.6268e-08
6.44843e-08
6.86125e-08
6.98849e-08
6.81769e-08
6.34253e-08
5.47055e-08
4.35615e-08
3.43524e-08
2.79341e-08
2.32596e-08
1.99419e-08
1.78255e-08
1.6614e-08
1.59742e-08
1.5655e-08
1.54317e-08
1.51385e-08
1.47131e-08
1.42174e-08
1.37275e-08
1.32911e-08
1.29658e-08
1.27568e-08
1.2645e-08
1.25993e-08
1.25736e-08
1.25206e-08
1.2413e-08
1.22506e-08
1.20871e-08
1.19913e-08
1.19556e-08
1.1943e-08
1.19236e-08
1.18718e-08
1.17804e-08
1.16533e-08
1.15226e-08
1.14198e-08
1.135e-08
1.13066e-08
1.12901e-08
1.13006e-08
1.13296e-08
1.13728e-08
1.14058e-08
1.14477e-08
1.15159e-08
1.16079e-08
1.17221e-08
1.18269e-08
1.19111e-08
1.19674e-08
1.20409e-08
1.21545e-08
1.23445e-08
1.26386e-08
1.30553e-08
1.36133e-08
1.43404e-08
1.52736e-08
1.64635e-08
1.79889e-08
1.99521e-08
2.24241e-08
2.54659e-08
2.90426e-08
3.29499e-08
3.69294e-08
4.08248e-08
4.4469e-08
4.76661e-08
4.96659e-08
5.01585e-08
4.80856e-08
4.31564e-08
3.56448e-08
2.83245e-08
2.32474e-08
1.91723e-08
1.62416e-08
1.4684e-08
1.42061e-08
1.45332e-08
1.543e-08
1.63117e-08
1.67892e-08
1.66519e-08
1.59654e-08
1.49808e-08
1.39825e-08
1.31882e-08
1.25754e-08
1.21184e-08
1.17803e-08
1.14955e-08
1.12046e-08
1.09249e-08
1.06788e-08
1.04906e-08
1.03558e-08
1.02771e-08
1.02383e-08
1.02247e-08
1.02235e-08
1.02241e-08
1.02208e-08
1.02136e-08
1.02053e-08
1.01985e-08
1.01922e-08
1.0186e-08
1.01736e-08
1.01571e-08
1.01467e-08
1.0133e-08
1.0122e-08
1.01167e-08
1.0112e-08
1.01095e-08
1.01085e-08
1.01084e-08
1.01084e-08
1.01083e-08
1.01089e-08
1.01091e-08
1.01095e-08
1.011e-08
1.01105e-08
1.0111e-08
1.01116e-08
1.01121e-08
1.01127e-08
1.01136e-08
1.01145e-08
1.01154e-08
1.01161e-08
1.01168e-08
1.01176e-08
1.01185e-08
1.01195e-08
1.01203e-08
1.01211e-08
1.01218e-08
1.01226e-08
1.01234e-08
1.0124e-08
1.01246e-08
1.01251e-08
1.01255e-08
1.01258e-08
1.01259e-08
1.0126e-08
1.01262e-08
1.01262e-08
1.01259e-08
1.01254e-08
1.01249e-08
1.01246e-08
1.01241e-08
1.01233e-08
1.01222e-08
1.0121e-08
1.01199e-08
1.01187e-08
1.01175e-08
1.01162e-08
1.01148e-08
1.01133e-08
1.01113e-08
1.0109e-08
1.01068e-08
1.01049e-08
1.01032e-08
1.01016e-08
1.00998e-08
1.00978e-08
1.00956e-08
1.00935e-08
1.00915e-08
1.00897e-08
1.0088e-08
1.00863e-08
1.00844e-08
1.00824e-08
1.00807e-08
1.00793e-08
1.0078e-08
1.00765e-08
1.0075e-08
1.00734e-08
1.00719e-08
1.00707e-08
1.00695e-08
1.00682e-08
1.0067e-08
1.00658e-08
1.00648e-08
1.00638e-08
1.00627e-08
1.00615e-08
1.00604e-08
1.00596e-08
1.00588e-08
1.00581e-08
1.00573e-08
1.00565e-08
1.00556e-08
1.00549e-08
1.00543e-08
1.00538e-08
1.00532e-08
1.00527e-08
1.00521e-08
1.00516e-08
1.00512e-08
1.00508e-08
1.00505e-08
1.00501e-08
1.00498e-08
1.00494e-08
1.00491e-08
1.00489e-08
1.00487e-08
1.00485e-08
1.00484e-08
1.00482e-08
1.0048e-08
1.00478e-08
1.00476e-08
1.00475e-08
1.00474e-08
1.00473e-08
1.00472e-08
1.00471e-08
1.0047e-08
1.00469e-08
1.00468e-08
1.00468e-08
1.00467e-08
1.00466e-08
1.00466e-08
1.00465e-08
1.00465e-08
1.00465e-08
1.00464e-08
1.00463e-08
1.00462e-08
1.00461e-08
1.0046e-08
1.0046e-08
1.0046e-08
1.00459e-08
1.00458e-08
1.00457e-08
1.00456e-08
1.00455e-08
1.00455e-08
1.00454e-08
1.00453e-08
1.00452e-08
1.00452e-08
1.00451e-08
1.0045e-08
1.00449e-08
1.00448e-08
1.00447e-08
1.00446e-08
1.00446e-08
1.00444e-08
1.00443e-08
1.00442e-08
1.00441e-08
1.0044e-08
1.0044e-08
1.00439e-08
1.00437e-08
1.00436e-08
1.00435e-08
1.00434e-08
1.00432e-08
1.00431e-08
1.0043e-08
1.00428e-08
1.00427e-08
1.00425e-08
1.00424e-08
1.00422e-08
1.00421e-08
1.00419e-08
1.00418e-08
1.00415e-08
1.00414e-08
1.00412e-08
1.00411e-08
1.00409e-08
1.00407e-08
1.00405e-08
1.00403e-08
1.00401e-08
1.004e-08
1.00398e-08
1.00396e-08
1.00394e-08
1.00393e-08
1.00392e-08
1.0039e-08
1.00388e-08
1.00386e-08
1.00385e-08
1.00384e-08
1.00382e-08
1.00381e-08
1.0038e-08
1.00378e-08
1.00377e-08
1.00375e-08
1.00374e-08
1.00373e-08
1.00372e-08
1.0037e-08
1.00369e-08
1.00368e-08
1.00367e-08
1.00366e-08
1.00364e-08
1.00363e-08
1.00362e-08
1.00361e-08
1.00359e-08
1.00359e-08
1.00357e-08
1.00356e-08
1.00355e-08
1.00354e-08
1.00353e-08
1.00351e-08
1.00351e-08
1.0035e-08
1.00348e-08
1.00347e-08
1.00347e-08
1.00346e-08
1.00344e-08
1.00343e-08
1.00343e-08
1.00342e-08
1.00342e-08
1.00341e-08
1.0034e-08
1.00339e-08
1.00338e-08
1.00337e-08
1.00337e-08
1.00336e-08
1.00335e-08
1.00334e-08
1.00334e-08
1.00333e-08
1.00332e-08
1.00331e-08
1.0033e-08
1.0033e-08
1.00328e-08
1.00327e-08
1.00327e-08
1.00326e-08
1.00325e-08
1.00324e-08
1.00323e-08
1.00323e-08
1.00322e-08
1.00321e-08
1.0032e-08
1.00319e-08
1.00318e-08
1.00318e-08
1.00317e-08
1.00316e-08
1.00316e-08
1.00315e-08
1.00315e-08
1.00314e-08
1.00313e-08
1.00312e-08
1.00311e-08
1.0031e-08
1.0031e-08
1.00309e-08
1.00308e-08
1.00307e-08
1.00307e-08
1.00305e-08
1.00304e-08
1.00306e-08
1.00306e-08
1.00307e-08
1.00306e-08
1.00308e-08
1.00308e-08
1.00305e-08
1.00311e-08
1.00312e-08
1.00312e-08
1.00313e-08
1.00312e-08
1.00312e-08
1.00312e-08
1.00311e-08
1.0031e-08
1.0031e-08
1.00309e-08
1.00308e-08
1.00308e-08
1.00305e-08
1.00295e-08
1.003e-08
1.00302e-08
1.00303e-08
1.00303e-08
1.00302e-08
1.00302e-08
1.00301e-08
1.00301e-08
1.00302e-08
1.00303e-08
1.00301e-08
1.00299e-08
1.00298e-08
1.00297e-08
1.00296e-08
1.00295e-08
1.00294e-08
1.00292e-08
1.00291e-08
1.0029e-08
1.0029e-08
1.0029e-08
1.00296e-08
1.00296e-08
1.0029e-08
1.00296e-08
1.00305e-08
1.00334e-08
1.00361e-08
1.004e-08
1.00421e-08
1.00411e-08
1.0039e-08
1.00371e-08
1.00357e-08
1.00346e-08
1.00339e-08
1.00332e-08
1.00327e-08
1.00323e-08
1.00318e-08
1.00311e-08
1.00303e-08
1.00295e-08
1.00287e-08
1.0028e-08
1.00274e-08
1.00269e-08
1.00265e-08
1.00261e-08
1.00257e-08
1.00254e-08
1.00251e-08
1.00249e-08
1.00247e-08
1.00246e-08
1.00246e-08
1.00246e-08
1.00246e-08
1.00246e-08
1.00246e-08
1.00246e-08
1.00246e-08
1.00247e-08
1.00248e-08
1.00249e-08
1.0025e-08
1.00251e-08
1.00252e-08
1.00252e-08
1.00252e-08
1.00252e-08
1.00251e-08
1.00251e-08
1.00251e-08
1.00251e-08
1.00252e-08
1.00252e-08
1.00253e-08
1.00254e-08
1.00254e-08
1.00254e-08
1.00254e-08
1.00254e-08
1.00254e-08
1.00254e-08
1.00253e-08
1.00252e-08
1.00251e-08
1.00251e-08
1.00251e-08
1.00251e-08
1.00251e-08
1.00251e-08
1.00251e-08
1.00249e-08
1.00247e-08
1.00245e-08
1.00245e-08
1.00245e-08
1.00245e-08
1.00245e-08
1.00244e-08
1.00244e-08
1.00244e-08
1.00244e-08
1.00244e-08
1.00244e-08
1.00243e-08
1.00241e-08
1.0024e-08
1.0024e-08
1.0024e-08
1.00239e-08
1.00243e-08
1.00248e-08
1.00255e-08
1.00264e-08
1.00275e-08
1.00268e-08
1.06169e-08
1.07764e-08
1.08051e-08
1.09001e-08
1.10829e-08
1.13966e-08
1.18911e-08
1.26555e-08
1.39317e-08
1.54934e-08
1.70989e-08
1.88446e-08
2.11864e-08
2.43597e-08
2.78177e-08
3.02297e-08
3.0768e-08
2.94884e-08
2.71352e-08
2.37803e-08
2.01198e-08
1.738e-08
1.55166e-08
1.41832e-08
1.32503e-08
1.26376e-08
1.22728e-08
1.2084e-08
1.1985e-08
1.19094e-08
1.18079e-08
1.16613e-08
1.14873e-08
1.13211e-08
1.11909e-08
1.11012e-08
1.10361e-08
1.09855e-08
1.09459e-08
1.09136e-08
1.08829e-08
1.08491e-08
1.08121e-08
1.07759e-08
1.07473e-08
1.07271e-08
1.07115e-08
1.06958e-08
1.06758e-08
1.06482e-08
1.06132e-08
1.05746e-08
1.0539e-08
1.05098e-08
1.04888e-08
1.04772e-08
1.04746e-08
1.04781e-08
1.04858e-08
1.04974e-08
1.05168e-08
1.05428e-08
1.05754e-08
1.06143e-08
1.06527e-08
1.06862e-08
1.07167e-08
1.07515e-08
1.07959e-08
1.08596e-08
1.09506e-08
1.10741e-08
1.12391e-08
1.14614e-08
1.1764e-08
1.21801e-08
1.27575e-08
1.35591e-08
1.46514e-08
1.60831e-08
1.78433e-08
1.98379e-08
2.19102e-08
2.38618e-08
2.55028e-08
2.67157e-08
2.75115e-08
2.79042e-08
2.80163e-08
2.78485e-08
2.70181e-08
2.5886e-08
2.36814e-08
2.07224e-08
1.78296e-08
1.57442e-08
1.42084e-08
1.32033e-08
1.2683e-08
1.24335e-08
1.23396e-08
1.23569e-08
1.22966e-08
1.21297e-08
1.1891e-08
1.16348e-08
1.14042e-08
1.12394e-08
1.11366e-08
1.10868e-08
1.10555e-08
1.10196e-08
1.09604e-08
1.08498e-08
1.07001e-08
1.05408e-08
1.04026e-08
1.02869e-08
1.02078e-08
1.01584e-08
1.01286e-08
1.01122e-08
1.01042e-08
1.01012e-08
1.01007e-08
1.01021e-08
1.01052e-08
1.01085e-08
1.01096e-08
1.01064e-08
1.01e-08
1.00937e-08
1.00873e-08
1.00816e-08
1.00771e-08
1.00738e-08
1.00712e-08
1.00689e-08
1.00673e-08
1.0066e-08
1.00651e-08
1.00646e-08
1.00642e-08
1.0064e-08
1.00638e-08
1.00637e-08
1.00636e-08
1.00636e-08
1.00636e-08
1.00636e-08
1.00637e-08
1.00637e-08
1.00638e-08
1.00639e-08
1.0064e-08
1.00641e-08
1.00641e-08
1.00642e-08
1.00643e-08
1.00644e-08
1.00644e-08
1.00645e-08
1.00645e-08
1.00645e-08
1.00644e-08
1.00644e-08
1.00643e-08
1.00642e-08
1.00641e-08
1.00639e-08
1.00637e-08
1.00635e-08
1.00633e-08
1.00631e-08
1.00629e-08
1.00626e-08
1.00623e-08
1.0062e-08
1.00617e-08
1.00614e-08
1.00611e-08
1.00608e-08
1.00605e-08
1.00601e-08
1.00597e-08
1.00592e-08
1.00588e-08
1.00585e-08
1.00581e-08
1.00578e-08
1.00574e-08
1.0057e-08
1.00566e-08
1.00562e-08
1.00558e-08
1.00554e-08
1.0055e-08
1.00547e-08
1.00543e-08
1.00539e-08
1.00536e-08
1.00533e-08
1.0053e-08
1.00527e-08
1.00523e-08
1.0052e-08
1.00516e-08
1.00513e-08
1.0051e-08
1.00507e-08
1.00504e-08
1.00501e-08
1.00498e-08
1.00496e-08
1.00493e-08
1.0049e-08
1.00487e-08
1.00484e-08
1.00482e-08
1.00479e-08
1.00477e-08
1.00475e-08
1.00472e-08
1.0047e-08
1.00468e-08
1.00465e-08
1.00463e-08
1.00462e-08
1.0046e-08
1.00458e-08
1.00456e-08
1.00454e-08
1.00453e-08
1.00451e-08
1.0045e-08
1.00448e-08
1.00447e-08
1.00446e-08
1.00444e-08
1.00443e-08
1.00442e-08
1.00441e-08
1.0044e-08
1.00438e-08
1.00437e-08
1.00436e-08
1.00435e-08
1.00434e-08
1.00433e-08
1.00432e-08
1.00431e-08