/*--------------------------------*- C++ -*----------------------------------*\
| =========                 |                                                 |
| \\      /  F ield         | OpenFOAM: The Open Source CFD Toolbox           |
|  \\    /   O peration     | Version:  v2006                                 |
|   \\  /    A nd           | Website:  www.openfoam.com                      |
|    \\/     M anipulation  |                                                 |
\*---------------------------------------------------------------------------*/
FoamFile
{
    version     2.0;
    format      ascii;
    class       volScalarField;
    location    "6.1";
    object      p;
}
// * * * * * * * * * * * * * * * * * * * * * * * * * * * * * * * * * * * * * //

dimensions      [1 -1 -2 0 0 0 0];


internalField   nonuniform List<scalar> 
33000
(
7414.24
7403.03
7399.13
7391.76
7385.45
7378.74
7372.03
7365.28
7358.64
7352
7345.35
7338.7
7332.15
7325.94
7320.19
7314.92
7309.93
7304.93
7300.16
7295.3
7289.63
7283.55
7277.81
7272.03
7266.33
7260.74
7255.23
7249.79
7244.43
7239.14
7233.93
7228.8
7223.75
7218.77
7213.87
7209.07
7204.38
7199.75
7195.22
7190.81
7186.51
7182.3
7178.21
7174.24
7170.37
7166.61
7162.98
7159.48
7156.09
7152.84
7149.73
7146.74
7143.88
7141.16
7138.58
7136.1
7133.76
7131.58
7129.58
7127.69
7125.94
7124.32
7122.91
7121.65
7120.53
7119.57
7118.78
7118.17
7117.7
7117.37
7117.19
7117.15
7117.28
7117.51
7117.78
7118.22
7119.04
7118.67
7113.64
7112.14
7115.9
7113.22
7115.79
7115.31
7115.79
7116.88
7118.62
7120.12
7121.6
7123.51
7125.12
7127
7128.85
7131.06
7132.76
7135.01
7136.15
7137.88
7137.18
7138.44
7144.51
7147.34
7151.07
7155.29
7159.36
7164.27
7169.89
7175.19
7180.8
7186.28
7192.12
7197.96
7203.89
7210.39
7216
7222.49
7226.61
7233.07
7243.38
7250.94
7259.81
7268.8
7277.77
7287.53
7297.96
7308.33
7319.21
7330.22
7341.48
7353.04
7364.94
7376.97
7389.33
7401.79
7414.51
7427.39
7440.48
7453.78
7467.22
7480.88
7494.67
7508.63
7522.71
7536.94
7551.28
7565.75
7580.29
7594.9
7609.55
7624.25
7638.98
7653.74
7668.5
7683.22
7697.91
7712.55
7727.14
7741.65
7756.07
7770.4
7784.61
7798.7
7812.66
7826.46
7840.1
7853.59
7866.89
7880
7892.91
7905.62
7918.12
7930.39
7942.43
7954.22
7965.77
7977.08
7988.13
7998.91
8009.42
8019.65
8029.6
8039.28
8048.66
8057.77
8066.59
8075.13
8083.37
8091.3
8098.95
8106.31
8113.39
8120.19
8126.7
8132.94
8138.9
8144.59
8150.03
8155.21
8160.16
8164.87
8169.34
8173.6
8177.64
8181.5
8185.18
8188.68
8192.03
8195.22
8198.29
8201.23
8204.07
8206.81
8209.47
8212.05
8214.57
8217
8219.34
8221.58
8223.7
8225.7
8227.59
8229.35
8230.98
8232.47
8233.81
8235
8236.04
8236.93
8237.67
8238.24
8238.65
8238.9
8238.97
8238.89
8238.63
8238.21
8237.61
8236.85
8235.91
8234.79
8233.51
8232.05
8230.43
8228.63
8226.67
8224.54
8222.23
8219.77
8217.13
8214.33
8211.38
8208.27
8204.99
8201.56
8197.98
8194.26
8190.38
8186.37
8182.22
8177.93
8173.51
8168.96
8164.29
8159.5
8154.6
8149.58
8144.46
8139.24
8133.93
8128.53
8123.04
8117.47
8111.83
8106.12
8100.35
8094.52
8088.65
8082.73
8076.77
8070.78
8064.76
8058.73
8052.67
8046.62
8040.56
8034.5
8028.46
8022.42
8016.41
8010.43
8004.47
7998.56
7992.68
7986.85
7981.07
7975.35
7969.68
7964.08
7958.54
7953.08
7947.69
7942.37
7937.14
7931.98
7926.91
7921.93
7917.03
7912.22
7907.5
7902.87
7898.33
7893.89
7889.53
7885.27
7881.11
7877.04
7873.06
7869.17
7865.37
7861.66
7858.04
7854.51
7851.06
7847.7
7844.43
7841.24
7838.13
7835.1
7832.16
7829.29
7826.5
7823.78
7821.14
7818.58
7816.08
7813.66
7811.3
7809.01
7806.78
7804.62
7802.51
7800.47
7798.49
7796.56
7794.68
7792.86
7791.09
7789.37
7787.7
7786.08
7784.51
7782.99
7781.51
7780.08
7778.69
7777.35
7776.05
7774.8
7773.59
7772.42
7771.3
7770.23
7769.21
7768.24
7767.32
7766.45
7765.64
7764.88
7764.17
7763.52
7762.92
7762.37
7761.88
7761.45
7761.06
7760.73
7760.46
7760.23
7760.06
7759.93
7759.86
7759.84
7759.87
7759.94
7760.06
7760.22
7760.43
7760.68
7760.97
7761.31
7761.67
7762.08
7762.52
7762.99
7763.5
7764.03
7764.6
7765.19
7765.8
7766.44
7767.1
7767.79
7768.49
7769.21
7769.94
7770.69
7771.45
7772.23
7773.02
7773.81
7774.62
7775.43
7776.25
7777.07
7777.9
7778.73
7779.57
7780.4
7781.24
7782.08
7782.91
7783.75
7784.58
7785.41
7786.23
7787.06
7787.88
7788.7
7789.5
7790.31
7791.1
7791.88
7792.66
7793.43
7794.19
7794.96
7795.7
7796.45
7797.18
7797.9
7798.61
7799.3
7799.99
7800.66
7801.33
7801.98
7802.62
7803.22
7803.85
7804.46
7805.05
7805.62
7806.19
7806.73
7807.26
7807.77
7808.28
7808.77
7809.26
7809.7
7810.17
7810.59
7811.03
7811.44
7811.83
7812.18
7812.6
7812.8
7813.32
7813.66
7813.85
7814.06
7814.28
7814.52
7814.76
7815
7815.24
7815.48
7815.72
7815.95
7816.19
7816.42
7816.65
7816.87
7817.09
7817.3
7817.51
7817.72
7817.92
7818.12
7818.31
7818.49
7818.67
7818.85
7819.02
7819.19
7819.35
7819.51
7819.66
7819.8
7819.94
7820.08
7820.21
7820.33
7820.45
7820.57
7820.68
7820.78
7820.88
7820.98
7821.07
7821.15
7821.23
7821.3
7821.37
7821.44
7821.49
7821.55
7821.6
7821.64
7821.68
7821.71
7821.74
7821.77
7821.79
7821.8
7821.81
7821.82
7821.82
7821.81
7821.8
7821.79
7821.77
7821.75
7821.72
7821.68
7821.65
7821.6
7821.56
7821.5
7821.45
7821.39
7821.32
7821.25
7821.17
7821.09
7821.01
7820.91
7820.86
7820.63
7218.06
7206.67
7203.24
7195.2
7188.91
7182.03
7175.3
7168.59
7161.98
7155.42
7148.79
7142.08
7135.34
7128.85
7122.91
7117.62
7112.53
7107.42
7102.51
7097.64
7092.25
7086.69
7081.05
7075.4
7069.8
7064.25
7058.76
7053.34
7047.99
7042.73
7037.54
7032.4
7027.34
7022.36
7017.46
7012.65
7007.95
7003.32
6998.79
6994.38
6990.08
6985.86
6981.74
6977.76
6973.9
6970.13
6966.5
6963
6959.62
6956.35
6953.22
6950.23
6947.36
6944.63
6942.03
6939.58
6937.24
6935.06
6933.05
6931.2
6929.45
6927.85
6926.38
6925.12
6923.99
6923
6922.18
6921.53
6921.02
6920.63
6920.37
6920.22
6920.2
6920.32
6920.56
6920.74
6920.54
6919.93
6920.09
6921.15
6919.95
6914.5
6914.15
6919.5
6918.59
6922.01
6921.88
6924.93
6924.04
6926.6
6928.78
6930.61
6932.63
6934.58
6936.51
6938.55
6940.56
6942.3
6944.36
6944.69
6947.63
6947.19
6950.46
6959.74
6963.85
6969.36
6973.48
6978.83
6983.31
6989.06
6995.51
7001.55
7007.72
7013.97
7020.1
7026.55
7033.14
7039.52
7047.43
7051.95
7060.35
7072.35
7081.65
7091.65
7101.56
7111.47
7122.2
7133.6
7144.93
7156.64
7168.43
7180.44
7192.75
7205.33
7218.05
7231.01
7244.07
7257.38
7270.81
7284.48
7298.28
7312.26
7326.36
7340.61
7354.96
7369.43
7383.98
7398.6
7413.28
7428.01
7442.76
7457.53
7472.29
7487.03
7501.74
7516.4
7531.01
7545.54
7559.97
7574.3
7588.52
7602.62
7616.59
7630.41
7644.07
7657.56
7670.88
7684
7696.92
7709.64
7722.15
7734.43
7746.47
7758.28
7769.84
7781.15
7792.2
7802.99
7813.5
7823.74
7833.69
7843.36
7852.75
7861.85
7870.67
7879.2
7887.44
7895.38
7903.03
7910.38
7917.44
7924.23
7930.74
7936.98
7942.94
7948.62
7954.05
7959.23
7964.16
7968.86
7973.33
7977.59
7981.63
7985.48
7989.16
7992.65
7995.99
7999.19
8002.25
8005.2
8008.03
8010.77
8013.43
8016.02
8018.54
8020.97
8023.31
8025.55
8027.68
8029.69
8031.58
8033.34
8034.98
8036.46
8037.81
8039.01
8040.05
8040.94
8041.68
8042.25
8042.67
8042.91
8043
8042.91
8042.66
8042.23
8041.64
8040.87
8039.93
8038.82
8037.54
8036.08
8034.46
8032.67
8030.7
8028.57
8026.26
8023.79
8021.16
8018.36
8015.41
8012.29
8009.02
8005.59
8002.01
7998.28
7994.41
7990.39
7986.24
7981.94
7977.52
7972.97
7968.3
7963.51
7958.6
7953.58
7948.46
7943.23
7937.91
7932.51
7927.01
7921.44
7915.79
7910.08
7904.3
7898.47
7892.58
7886.66
7880.69
7874.69
7868.67
7862.62
7856.57
7850.5
7844.43
7838.37
7832.31
7826.27
7820.26
7814.26
7808.3
7802.38
7796.49
7790.66
7784.87
7779.14
7773.47
7767.86
7762.32
7756.84
7751.45
7746.13
7740.89
7735.73
7730.65
7725.66
7720.76
7715.94
7711.22
7706.59
7702.05
7697.6
7693.25
7688.98
7684.82
7680.74
7676.76
7672.87
7669.07
7665.36
7661.74
7658.21
7654.76
7651.4
7648.13
7644.94
7641.83
7638.8
7635.86
7632.99
7630.2
7627.49
7624.85
7622.28
7619.79
7617.36
7615
7612.71
7610.49
7608.32
7606.22
7604.18
7602.19
7600.26
7598.38
7596.56
7594.79
7593.07
7591.41
7589.79
7588.21
7586.69
7585.21
7583.78
7582.39
7581.05
7579.75
7578.49
7577.28
7576.11
7574.99
7573.92
7572.9
7571.92
7571
7570.14
7569.32
7568.56
7567.85
7567.2
7566.6
7566.05
7565.56
7565.13
7564.74
7564.41
7564.14
7563.91
7563.74
7563.62
7563.55
7563.53
7563.56
7563.63
7563.75
7563.92
7564.13
7564.38
7564.68
7565.01
7565.39
7565.79
7566.24
7566.71
7567.22
7567.76
7568.33
7568.92
7569.54
7570.18
7570.85
7571.53
7572.24
7572.96
7573.7
7574.45
7575.21
7575.99
7576.78
7577.58
7578.39
7579.21
7580.03
7580.85
7581.68
7582.52
7583.36
7584.2
7585.03
7585.87
7586.71
7587.55
7588.38
7589.22
7590.05
7590.87
7591.69
7592.5
7593.29
7594.1
7594.89
7595.69
7596.46
7597.25
7598.01
7598.78
7599.53
7600.27
7601
7601.71
7602.44
7603.12
7603.83
7604.49
7605.14
7605.77
7606.46
7607.06
7607.7
7608.29
7608.89
7609.46
7610.02
7610.57
7611.09
7611.62
7612.1
7612.62
7613.06
7613.57
7613.99
7614.46
7614.82
7615.31
7615.52
7616.14
7616.52
7616.77
7617
7617.27
7617.54
7617.8
7618.05
7618.29
7618.54
7618.79
7619.04
7619.28
7619.52
7619.76
7619.99
7620.23
7620.45
7620.68
7620.9
7621.11
7621.32
7621.53
7621.73
7621.93
7622.12
7622.31
7622.49
7622.66
7622.84
7623
7623.16
7623.32
7623.47
7623.62
7623.76
7623.89
7624.02
7624.15
7624.27
7624.38
7624.49
7624.6
7624.7
7624.79
7624.88
7624.96
7625.04
7625.12
7625.18
7625.25
7625.31
7625.36
7625.41
7625.45
7625.49
7625.53
7625.55
7625.58
7625.6
7625.61
7625.62
7625.63
7625.63
7625.62
7625.61
7625.6
7625.58
7625.56
7625.53
7625.5
7625.46
7625.41
7625.37
7625.32
7625.26
7625.2
7625.13
7625.06
7624.99
7624.91
7624.82
7624.72
7624.68
7624.45
7024.33
7011.61
7007.89
6999.15
6992.55
6985.55
6978.78
6972.11
6965.54
6959.04
6952.52
6945.98
6939.48
6933.14
6927.13
6921.62
6916.39
6911.16
6905.93
6900.66
6895.23
6889.73
6884.16
6878.57
6873.03
6867.51
6862.04
6856.64
6851.32
6846.05
6840.86
6835.73
6830.67
6825.68
6820.77
6815.95
6811.24
6806.62
6802.08
6797.65
6793.34
6789.11
6784.97
6780.99
6777.13
6773.35
6769.7
6766.18
6762.79
6759.52
6756.38
6753.38
6750.51
6747.77
6745.17
6742.71
6740.39
6738.23
6736.2
6734.36
6732.6
6731
6729.5
6728.25
6727.1
6726.1
6725.26
6724.57
6724.02
6723.59
6723.3
6723.11
6723.01
6723.02
6723.09
6723.09
6722.96
6722.69
6722.5
6722.47
6722.64
6723.45
6724.94
6723.87
6718.47
6719.2
6725.81
6727.61
6728.73
6731.31
6732.43
6733.57
6735.75
6738.52
6740.3
6742.73
6744.5
6746.67
6748.89
6751.34
6754.48
6758.05
6758.94
6762.76
6762.36
6766.81
6777.48
6782.96
6789.17
6793.81
6799.54
6804.51
6810.68
6817.67
6824.01
6830.73
6837.38
6844.54
6852.4
6860.54
6868
6876.67
6882.07
6891.4
6904.87
6915.23
6926.28
6937.04
6947.83
6959.34
6971.68
6983.7
6996.26
7008.6
7021.33
7034.09
7047.19
7060.55
7074.03
7087.76
7101.59
7115.61
7129.75
7144.05
7158.44
7172.96
7187.53
7202.19
7216.91
7231.68
7246.48
7261.28
7276.07
7290.84
7305.58
7320.28
7334.92
7349.49
7363.95
7378.31
7392.55
7406.68
7420.67
7434.51
7448.2
7461.72
7475.05
7488.19
7501.14
7513.88
7526.4
7538.7
7550.77
7562.59
7574.16
7585.47
7596.53
7607.33
7617.85
7628.1
7638.05
7647.72
7657.12
7666.22
7675.03
7683.55
7691.78
7699.71
7707.35
7714.69
7721.75
7728.52
7735.02
7741.24
7747.2
7752.88
7758.3
7763.46
7768.37
7773.07
7777.53
7781.78
7785.82
7789.66
7793.33
7796.82
7800.16
7803.36
7806.42
7809.37
7812.2
7814.95
7817.61
7820.2
7822.71
7825.14
7827.48
7829.72
7831.85
7833.87
7835.77
7837.53
7839.17
7840.66
7842.01
7843.22
7844.27
7845.16
7845.9
7846.48
7846.89
7847.15
7847.23
7847.15
7846.9
7846.48
7845.89
7845.12
7844.18
7843.07
7841.79
7840.34
7838.72
7836.92
7834.96
7832.82
7830.51
7828.05
7825.42
7822.62
7819.66
7816.54
7813.27
7809.84
7806.26
7802.53
7798.65
7794.63
7790.47
7786.18
7781.75
7777.2
7772.52
7767.72
7762.8
7757.78
7752.65
7747.41
7742.08
7736.67
7731.16
7725.57
7719.91
7714.19
7708.4
7702.55
7696.65
7690.71
7684.73
7678.72
7672.68
7666.62
7660.54
7654.46
7648.38
7642.29
7636.22
7630.17
7624.13
7618.12
7612.15
7606.21
7600.31
7594.45
7588.65
7582.91
7577.23
7571.6
7566.05
7560.57
7555.16
7549.83
7544.57
7539.4
7534.32
7529.32
7524.41
7519.59
7514.86
7510.22
7505.68
7501.22
7496.86
7492.59
7488.42
7484.34
7480.36
7476.46
7472.66
7468.95
7465.32
7461.79
7458.35
7454.99
7451.71
7448.52
7445.42
7442.39
7439.45
7436.58
7433.79
7431.08
7428.44
7425.88
7423.38
7420.96
7418.6
7416.31
7414.09
7411.92
7409.82
7407.78
7405.79
7403.86
7401.99
7400.16
7398.39
7396.68
7395.01
7393.39
7391.81
7390.29
7388.8
7387.37
7385.98
7384.63
7383.33
7382.07
7380.85
7379.68
7378.56
7377.48
7376.46
7375.49
7374.56
7373.69
7372.88
7372.11
7371.41
7370.75
7370.15
7369.61
7369.12
7368.68
7368.3
7367.97
7367.7
7367.48
7367.31
7367.19
7367.12
7367.1
7367.14
7367.22
7367.34
7367.51
7367.73
7367.99
7368.29
7368.63
7369.01
7369.42
7369.87
7370.35
7370.87
7371.41
7371.99
7372.59
7373.21
7373.86
7374.53
7375.22
7375.94
7376.66
7377.41
7378.17
7378.94
7379.73
7380.52
7381.33
7382.14
7382.96
7383.79
7384.62
7385.45
7386.3
7387.13
7387.98
7388.82
7389.67
7390.51
7391.36
7392.19
7393.03
7393.85
7394.66
7395.48
7396.29
7397.1
7397.91
7398.71
7399.5
7400.29
7401.07
7401.84
7402.61
7403.36
7404.11
7404.85
7405.58
7406.29
7406.97
7407.65
7408.36
7409.01
7409.68
7410.31
7410.94
7411.56
7412.16
7412.75
7413.32
7413.88
7414.41
7414.96
7415.45
7416
7416.46
7416.98
7417.37
7417.92
7418.15
7418.85
7419.26
7419.54
7419.81
7420.11
7420.4
7420.7
7421
7421.28
7421.55
7421.81
7422.07
7422.33
7422.58
7422.84
7423.08
7423.33
7423.57
7423.81
7424.04
7424.27
7424.5
7424.72
7424.93
7425.14
7425.35
7425.55
7425.75
7425.94
7426.13
7426.31
7426.49
7426.66
7426.83
7426.99
7427.14
7427.3
7427.44
7427.58
7427.72
7427.85
7427.97
7428.09
7428.21
7428.32
7428.42
7428.52
7428.61
7428.7
7428.79
7428.87
7428.94
7429.01
7429.07
7429.13
7429.18
7429.23
7429.28
7429.32
7429.35
7429.38
7429.4
7429.42
7429.44
7429.45
7429.45
7429.45
7429.45
7429.44
7429.42
7429.4
7429.38
7429.35
7429.32
7429.28
7429.24
7429.19
7429.14
7429.08
7429.02
7428.95
7428.88
7428.81
7428.73
7428.65
7428.54
7428.5
7428.27
6831.84
6816.32
6812.79
6802.67
6795.87
6788.66
6781.79
6775.14
6768.67
6762.3
6755.94
6749.59
6743.29
6737.08
6731.08
6725.31
6719.71
6714.23
6708.84
6703.49
6698.08
6692.61
6687.09
6681.57
6676.06
6670.56
6665.11
6659.73
6654.41
6649.14
6643.94
6638.8
6633.72
6628.72
6623.8
6618.97
6614.25
6609.6
6605.05
6600.6
6596.27
6592.03
6587.9
6583.9
6580.01
6576.22
6572.55
6569.01
6565.61
6562.33
6559.19
6556.18
6553.3
6550.55
6547.94
6545.48
6543.17
6541
6538.98
6537.14
6535.42
6533.78
6532.34
6531
6529.84
6528.85
6527.99
6527.26
6526.69
6526.24
6525.91
6525.7
6525.59
6525.56
6525.55
6525.54
6525.56
6525.6
6525.56
6525.43
6525.34
6525.6
6526.4
6527.56
6528.99
6530.67
6532.97
6532.98
6527.95
6529.74
6536.88
6536.88
6541.15
6541.72
6543.36
6545.77
6549.14
6551.27
6554.06
6556.31
6559.35
6561.98
6565.43
6570.58
6573.99
6578.8
6581.29
6585.65
6585.86
6591.24
6602.74
6608.98
6615.09
6621.25
6627.12
6633.9
6641.66
6648.85
6656.64
6664.1
6672.58
6681.48
6690.89
6699.17
6708.9
6714.93
6725.25
6739.88
6751.19
6763.09
6774.75
6786.21
6798.52
6811.57
6824.33
6837.51
6850.5
6863.83
6877.16
6890.87
6904.78
6918.84
6933.05
6947.36
6961.79
6976.34
6990.98
7005.69
7020.48
7035.3
7050.15
7065
7079.84
7094.66
7109.46
7124.2
7138.88
7153.48
7167.99
7182.4
7196.69
7210.85
7224.87
7238.76
7252.49
7266.04
7279.41
7292.58
7305.56
7318.33
7330.88
7343.21
7355.3
7367.14
7378.73
7390.07
7401.14
7411.94
7422.48
7432.72
7442.69
7452.36
7461.76
7470.86
7479.67
7488.17
7496.39
7504.31
7511.94
7519.28
7526.32
7533.08
7539.56
7545.76
7551.7
7557.37
7562.78
7567.93
7572.83
7577.51
7581.96
7586.2
7590.24
7594.07
7597.73
7601.23
7604.57
7607.77
7610.83
7613.78
7616.62
7619.37
7622.03
7624.62
7627.12
7629.54
7631.87
7634.11
7636.24
7638.27
7640.17
7641.94
7643.57
7645.07
7646.43
7647.64
7648.7
7649.6
7650.34
7650.92
7651.34
7651.59
7651.69
7651.61
7651.36
7650.94
7650.35
7649.59
7648.65
7647.54
7646.27
7644.82
7643.2
7641.4
7639.43
7637.29
7634.99
7632.53
7629.9
7627.1
7624.14
7621.02
7617.74
7614.31
7610.73
7607
7603.11
7599.09
7594.92
7590.62
7586.19
7581.63
7576.94
7572.13
7567.21
7562.17
7557.03
7551.78
7546.44
7541
7535.48
7529.88
7524.2
7518.46
7512.65
7506.78
7500.86
7494.89
7488.89
7482.85
7476.79
7470.71
7464.61
7458.5
7452.39
7446.28
7440.19
7434.11
7428.05
7422.02
7416.02
7410.05
7404.13
7398.26
7392.44
7386.67
7380.97
7375.33
7369.75
7364.25
7358.83
7353.48
7348.21
7343.03
7337.93
7332.92
7328
7323.17
7318.43
7313.78
7309.22
7304.76
7300.39
7296.12
7291.94
7287.85
7283.86
7279.96
7276.15
7272.44
7268.82
7265.28
7261.84
7258.48
7255.2
7252.02
7248.91
7245.89
7242.95
7240.08
7237.3
7234.59
7231.95
7229.38
7226.89
7224.47
7222.11
7219.82
7217.59
7215.43
7213.32
7211.28
7209.29
7207.36
7205.49
7203.66
7201.89
7200.17
7198.5
7196.88
7195.3
7193.77
7192.29
7190.85
7189.45
7188.1
7186.79
7185.52
7184.31
7183.13
7182.01
7180.93
7179.9
7178.93
7178
7177.13
7176.31
7175.55
7174.84
7174.18
7173.58
7173.04
7172.55
7172.11
7171.73
7171.41
7171.14
7170.92
7170.76
7170.64
7170.58
7170.57
7170.61
7170.69
7170.83
7171.01
7171.23
7171.5
7171.8
7172.15
7172.54
7172.96
7173.42
7173.91
7174.44
7174.99
7175.57
7176.19
7176.82
7177.48
7178.16
7178.86
7179.58
7180.32
7181.07
7181.84
7182.62
7183.42
7184.22
7185.04
7185.86
7186.69
7187.52
7188.36
7189.21
7190.05
7190.9
7191.75
7192.61
7193.46
7194.31
7195.15
7195.96
7196.81
7197.62
7198.46
7199.28
7200.11
7200.91
7201.74
7202.54
7203.35
7204.13
7204.93
7205.7
7206.49
7207.24
7207.98
7208.71
7209.42
7210.17
7210.85
7211.58
7212.22
7212.91
7213.54
7214.22
7214.82
7215.47
7216.04
7216.67
7217.21
7217.8
7218.35
7218.84
7219.38
7219.82
7220.42
7220.68
7221.44
7221.9
7222.2
7222.5
7222.82
7223.15
7223.49
7223.82
7224.14
7224.45
7224.75
7225.04
7225.32
7225.59
7225.86
7226.13
7226.39
7226.65
7226.9
7227.15
7227.39
7227.63
7227.87
7228.1
7228.33
7228.55
7228.77
7228.98
7229.19
7229.39
7229.59
7229.78
7229.97
7230.15
7230.33
7230.5
7230.66
7230.83
7230.98
7231.13
7231.28
7231.42
7231.56
7231.69
7231.81
7231.93
7232.04
7232.15
7232.26
7232.36
7232.45
7232.54
7232.62
7232.7
7232.78
7232.84
7232.91
7232.97
7233.02
7233.07
7233.11
7233.15
7233.19
7233.21
7233.24
7233.26
7233.27
7233.28
7233.29
7233.29
7233.28
7233.27
7233.26
7233.24
7233.21
7233.19
7233.15
7233.11
7233.07
7233.02
7232.97
7232.92
7232.85
7232.79
7232.72
7232.64
7232.56
7232.48
7232.38
7232.33
7232.11
6637.1
6619.24
6617.13
6605.17
6598.29
6591.01
6584.18
6577.62
6571.28
6565.07
6558.9
6552.76
6546.67
6540.63
6534.69
6528.86
6523.14
6517.51
6511.94
6506.42
6500.92
6495.42
6489.9
6484.39
6478.89
6473.41
6467.97
6462.58
6457.26
6451.98
6446.77
6441.61
6436.51
6431.49
6426.55
6421.71
6416.96
6412.29
6407.71
6403.24
6398.88
6394.62
6390.48
6386.45
6382.54
6378.74
6375.04
6371.49
6368.06
6364.76
6361.6
6358.58
6355.71
6352.95
6350.33
6347.86
6345.55
6343.37
6341.34
6339.46
6337.77
6336.15
6334.69
6333.38
6332.24
6331.21
6330.34
6329.6
6329
6328.54
6328.2
6327.97
6327.85
6327.8
6327.81
6327.89
6328.02
6328.18
6328.41
6328.72
6329.1
6329.5
6329.92
6330.44
6331.51
6333.35
6335.23
6336.97
6339.12
6341.91
6341.69
6336.23
6338.62
6347.49
6347.75
6351.84
6352.91
6354.68
6357.71
6361.88
6364.87
6368.33
6371.45
6375.28
6378.76
6383.31
6388.9
6392.85
6399.03
6401.39
6406.72
6407.03
6412.88
6425.54
6432.25
6438.95
6445.8
6452.48
6460.28
6469.18
6477.34
6486.11
6494.56
6504.02
6513.97
6524.35
6533.5
6544.11
6550.79
6561.86
6577.75
6589.55
6602.71
6614.55
6627.19
6639.29
6652.42
6666.24
6679.81
6693.73
6707.59
6721.66
6735.91
6750.39
6764.9
6779.56
6794.25
6809.04
6823.89
6838.81
6853.72
6868.65
6883.57
6898.47
6913.34
6928.16
6942.9
6957.56
6972.13
6986.6
7000.94
7015.16
7029.24
7043.17
7056.94
7070.54
7083.95
7097.18
7110.19
7123
7135.59
7147.95
7160.07
7171.94
7183.56
7194.92
7206.01
7216.83
7227.37
7237.63
7247.6
7257.29
7266.69
7275.79
7284.58
7293.08
7301.28
7309.19
7316.81
7324.14
7331.18
7337.92
7344.38
7350.56
7356.48
7362.13
7367.53
7372.67
7377.56
7382.22
7386.67
7390.9
7394.94
7398.77
7402.43
7405.93
7409.27
7412.48
7415.55
7418.5
7421.34
7424.09
7426.75
7429.33
7431.82
7434.23
7436.55
7438.77
7440.9
7442.92
7444.82
7446.59
7448.22
7449.72
7451.08
7452.29
7453.36
7454.26
7455.01
7455.59
7456.01
7456.27
7456.37
7456.29
7456.05
7455.63
7455.04
7454.28
7453.34
7452.24
7450.97
7449.52
7447.89
7446.09
7444.13
7442
7439.7
7437.23
7434.6
7431.8
7428.84
7425.71
7422.43
7419
7415.41
7411.68
7407.79
7403.76
7399.59
7395.28
7390.84
7386.27
7381.57
7376.74
7371.81
7366.76
7361.6
7356.34
7350.97
7345.52
7339.97
7334.35
7328.65
7322.88
7317.05
7311.15
7305.21
7299.21
7293.18
7287.11
7281.02
7274.9
7268.77
7262.63
7256.49
7250.35
7244.22
7238.11
7232.02
7225.95
7219.92
7213.92
7207.97
7202.07
7196.22
7190.43
7184.7
7179.03
7173.44
7167.91
7162.47
7157.1
7151.81
7146.61
7141.49
7136.46
7131.52
7126.68
7121.92
7117.26
7112.69
7108.22
7103.84
7099.56
7095.37
7091.27
7087.27
7083.37
7079.55
7075.83
7072.21
7068.67
7065.22
7061.86
7058.59
7055.4
7052.3
7049.27
7046.33
7043.47
7040.69
7037.98
7035.34
7032.78
7030.29
7027.86
7025.51
7023.21
7020.99
7018.82
7016.72
7014.67
7012.69
7010.76
7008.88
7007.06
7005.28
7003.56
7001.89
7000.26
6998.68
6997.14
6995.65
6994.21
6992.8
6991.45
6990.13
6988.86
6987.64
6986.46
6985.33
6984.25
6983.22
6982.24
6981.31
6980.44
6979.62
6978.85
6978.14
6977.48
6976.88
6976.34
6975.85
6975.42
6975.04
6974.72
6974.46
6974.24
6974.08
6973.98
6973.92
6973.92
6973.96
6974.06
6974.2
6974.39
6974.62
6974.9
6975.22
6975.58
6975.98
6976.42
6976.89
6977.39
6977.93
6978.5
6979.1
6979.72
6980.37
6981.04
6981.74
6982.45
6983.19
6983.93
6984.7
6985.48
6986.28
6987.08
6987.9
6988.73
6989.56
6990.4
6991.24
6992.1
6992.95
6993.82
6994.67
6995.54
6996.39
6997.2
6998.06
6998.89
6999.74
7000.57
7001.42
7002.25
7003.09
7003.92
7004.75
7005.57
7006.38
7007.19
7008
7008.8
7009.56
7010.34
7011.11
7011.88
7012.61
7013.35
7014.06
7014.77
7015.45
7016.16
7016.81
7017.5
7018.11
7018.79
7019.36
7020.02
7020.59
7021.15
7021.72
7022.24
7022.78
7023.14
7023.93
7024.43
7024.75
7025.08
7025.44
7025.8
7026.17
7026.54
7026.9
7027.24
7027.57
7027.89
7028.21
7028.51
7028.81
7029.1
7029.39
7029.66
7029.94
7030.2
7030.47
7030.72
7030.98
7031.22
7031.47
7031.71
7031.94
7032.17
7032.39
7032.61
7032.82
7033.03
7033.24
7033.43
7033.63
7033.82
7034
7034.18
7034.35
7034.51
7034.68
7034.83
7034.98
7035.13
7035.27
7035.41
7035.54
7035.66
7035.78
7035.9
7036
7036.11
7036.21
7036.3
7036.39
7036.47
7036.55
7036.63
7036.69
7036.76
7036.82
7036.87
7036.92
7036.96
7037
7037.03
7037.06
7037.09
7037.11
7037.12
7037.13
7037.13
7037.13
7037.13
7037.12
7037.1
7037.08
7037.06
7037.03
7037
7036.96
7036.92
7036.87
7036.82
7036.76
7036.7
7036.63
7036.56
7036.49
7036.41
7036.33
7036.22
7036.18
7035.95
6435.28
6420.71
6417.79
6405.6
6399.16
6392.22
6385.7
6379.43
6373.34
6367.36
6361.4
6355.45
6349.51
6343.6
6337.73
6331.93
6326.19
6320.52
6314.9
6309.31
6303.74
6298.19
6292.63
6287.1
6281.58
6276.09
6270.64
6265.24
6259.89
6254.6
6249.36
6244.17
6239.04
6233.99
6229.04
6224.16
6219.38
6214.7
6210.08
6205.57
6201.18
6196.89
6192.73
6188.69
6184.75
6180.91
6177.18
6173.61
6170.15
6166.82
6163.67
6160.63
6157.73
6154.97
6152.34
6149.87
6147.55
6145.37
6143.34
6141.45
6139.74
6138.15
6136.66
6135.37
6134.24
6133.24
6132.34
6131.6
6130.99
6130.52
6130.18
6129.97
6129.85
6129.8
6129.87
6130.02
6130.23
6130.51
6130.87
6131.35
6131.95
6132.68
6133.51
6134.5
6135.63
6136.88
6138.17
6139.49
6141.16
6143.26
6145.34
6148.1
6151.58
6151.46
6145.68
6148.89
6159.13
6159.64
6164.65
6165.99
6168.49
6172.35
6177.26
6181.41
6185.3
6189.65
6193.55
6198.5
6202.62
6208.04
6213.88
6220.03
6223.4
6229.34
6229.96
6236.35
6250.37
6257.91
6265.46
6273.19
6280.83
6289.54
6299.53
6308.58
6318.28
6327.63
6337.99
6348.89
6360.21
6370.02
6381.53
6388.62
6400.68
6417.1
6429.93
6443.6
6456.18
6469.5
6482.11
6495.92
6510.31
6524.5
6538.94
6553.36
6567.87
6582.57
6597.44
6612.31
6627.3
6642.27
6657.27
6672.28
6687.31
6702.29
6717.25
6732.13
6746.94
6761.66
6776.3
6790.84
6805.27
6819.56
6833.7
6847.7
6861.52
6875.18
6888.66
6901.95
6915.03
6927.89
6940.52
6952.92
6965.07
6976.99
6988.64
7000.04
7011.16
7021.99
7032.55
7042.82
7052.81
7062.51
7071.91
7081
7089.8
7098.29
7106.48
7114.38
7121.99
7129.31
7136.33
7143.06
7149.5
7155.66
7161.56
7167.2
7172.59
7177.72
7182.61
7187.26
7191.7
7195.93
7199.96
7203.81
7207.47
7210.98
7214.32
7217.53
7220.6
7223.55
7226.4
7229.15
7231.8
7234.37
7236.85
7239.24
7241.54
7243.75
7245.86
7247.86
7249.74
7251.51
7253.14
7254.64
7255.99
7257.2
7258.26
7259.17
7259.92
7260.51
7260.93
7261.19
7261.29
7261.21
7260.97
7260.55
7259.96
7259.2
7258.27
7257.17
7255.89
7254.44
7252.82
7251.02
7249.06
7246.93
7244.63
7242.16
7239.52
7236.72
7233.76
7230.63
7227.35
7223.91
7220.33
7216.58
7212.69
7208.65
7204.47
7200.16
7195.7
7191.12
7186.4
7181.56
7176.61
7171.54
7166.36
7161.08
7155.69
7150.21
7144.64
7138.99
7133.27
7127.46
7121.6
7115.67
7109.69
7103.66
7097.59
7091.49
7085.35
7079.2
7073.03
7066.85
7060.67
7054.49
7048.32
7042.17
7036.04
7029.93
7023.86
7017.83
7011.85
7005.91
7000.02
6994.2
6988.43
6982.73
6977.11
6971.56
6966.08
6960.68
6955.37
6950.14
6945
6939.95
6934.99
6930.13
6925.35
6920.67
6916.09
6911.6
6907.21
6902.91
6898.71
6894.61
6890.6
6886.69
6882.87
6879.14
6875.51
6871.96
6868.51
6865.15
6861.88
6858.69
6855.58
6852.56
6849.62
6846.76
6843.98
6841.27
6838.63
6836.07
6833.58
6831.16
6828.8
6826.51
6824.28
6822.11
6820.01
6817.96
6815.97
6814.04
6812.16
6810.33
6808.56
6806.83
6805.15
6803.52
6801.93
6800.39
6798.9
6797.44
6796.03
6794.67
6793.35
6792.07
6790.84
6789.66
6788.52
6787.44
6786.4
6785.42
6784.49
6783.61
6782.79
6782.03
6781.31
6780.66
6780.06
6779.52
6779.03
6778.6
6778.23
6777.91
6777.65
6777.44
6777.29
6777.19
6777.15
6777.15
6777.21
6777.32
6777.47
6777.67
6777.92
6778.21
6778.54
6778.92
6779.33
6779.78
6780.27
6780.79
6781.34
6781.93
6782.54
6783.18
6783.84
6784.54
6785.24
6785.98
6786.72
6787.5
6788.28
6789.08
6789.88
6790.71
6791.53
6792.37
6793.22
6794.08
6794.95
6795.81
6796.69
6797.55
6798.36
6799.23
6800.06
6800.93
6801.78
6802.66
6803.5
6804.37
6805.21
6806.07
6806.91
6807.77
6808.59
6809.45
6810.26
6811.07
6811.87
6812.68
6813.47
6814.25
6815.01
6815.76
6816.52
6817.24
6818
6818.68
6819.43
6820.06
6820.8
6821.39
6822.13
6822.7
6823.39
6823.9
6824.64
6824.99
6825.87
6826.42
6826.74
6827.13
6827.53
6827.93
6828.33
6828.75
6829.15
6829.55
6829.92
6830.29
6830.64
6830.99
6831.33
6831.66
6831.98
6832.29
6832.6
6832.9
6833.19
6833.48
6833.76
6834.03
6834.3
6834.56
6834.82
6835.07
6835.31
6835.56
6835.79
6836.02
6836.25
6836.47
6836.68
6836.89
6837.1
6837.3
6837.49
6837.68
6837.86
6838.04
6838.21
6838.38
6838.54
6838.7
6838.85
6838.99
6839.13
6839.27
6839.4
6839.52
6839.64
6839.76
6839.87
6839.97
6840.07
6840.16
6840.25
6840.34
6840.41
6840.49
6840.56
6840.62
6840.68
6840.73
6840.78
6840.82
6840.86
6840.89
6840.92
6840.95
6840.97
6840.98
6840.99
6840.99
6840.99
6840.99
6840.98
6840.96
6840.94
6840.92
6840.89
6840.86
6840.82
6840.78
6840.73
6840.68
6840.62
6840.56
6840.49
6840.42
6840.35
6840.27
6840.18
6840.08
6840.04
6839.81
6228.7
6214.92
6213.63
6203.85
6198.31
6192.3
6186.48
6180.75
6175.06
6169.39
6163.69
6157.95
6152.17
6146.38
6140.59
6134.82
6129.08
6123.37
6117.71
6112.08
6106.46
6100.87
6095.28
6089.69
6084.14
6078.62
6073.14
6067.71
6062.32
6057.01
6051.74
6046.5
6041.34
6036.27
6031.27
6026.36
6021.56
6016.84
6012.15
6007.62
6003.21
5998.86
5994.65
5990.6
5986.65
5982.76
5979.02
5975.4
5971.94
5968.57
5965.38
5962.37
5959.43
5956.63
5954
5951.52
5949.16
5946.97
5944.94
5943.06
5941.31
5939.72
5938.26
5936.95
5935.81
5934.83
5933.94
5933.2
5932.62
5932.16
5931.83
5931.63
5931.55
5931.55
5931.68
5931.9
5932.21
5932.61
5933.12
5933.74
5934.47
5935.33
5936.33
5937.5
5938.83
5940.28
5941.83
5943.41
5944.99
5946.57
5948.28
5950.4
5952.91
5955.41
5958.81
5962.93
5962.92
5957.01
5961.28
5972.96
5974.19
5979.93
5981.76
5984.93
5989.67
5995.63
6000.47
6005.3
6009.98
6015
6019.65
6024.76
6030.36
6037.1
6043.82
6047.73
6054.48
6055.34
6062.65
6078.27
6086.75
6095.23
6103.92
6112.46
6122.11
6133.23
6143.13
6153.81
6163.91
6174.88
6186.87
6198.06
6210.34
6220.95
6232.94
6241
6253.61
6271.28
6284.86
6299.12
6312.89
6326.45
6340.81
6355.95
6370.66
6385.6
6400.45
6415.36
6430.42
6445.59
6460.7
6475.86
6490.98
6506.08
6521.14
6536.15
6551.06
6565.9
6580.61
6595.25
6609.74
6624.12
6638.33
6652.4
6666.29
6680.02
6693.57
6706.93
6720.07
6732.99
6745.68
6758.13
6770.33
6782.29
6793.99
6805.42
6816.57
6827.44
6838.02
6848.32
6858.32
6868.02
6877.43
6886.53
6895.32
6903.82
6912.01
6919.9
6927.49
6934.79
6941.81
6948.53
6954.96
6961.11
6967
6972.63
6978.01
6983.13
6988.02
6992.68
6997.11
7001.34
7005.38
7009.23
7012.9
7016.41
7019.76
7022.97
7026.05
7029
7031.85
7034.59
7037.23
7039.78
7042.24
7044.6
7046.88
7049.06
7051.15
7053.12
7054.99
7056.73
7058.35
7059.84
7061.19
7062.39
7063.44
7064.34
7065.09
7065.68
7066.1
7066.36
7066.45
7066.37
7066.12
7065.71
7065.12
7064.36
7063.42
7062.32
7061.04
7059.59
7057.97
7056.18
7054.22
7052.08
7049.78
7047.31
7044.67
7041.87
7038.9
7035.78
7032.49
7029.05
7025.45
7021.7
7017.8
7013.76
7009.57
7005.24
7000.77
6996.17
6991.44
6986.58
6981.61
6976.52
6971.32
6966.01
6960.6
6955.09
6949.49
6943.81
6938.05
6932.21
6926.3
6920.34
6914.31
6908.25
6902.13
6895.99
6889.81
6883.61
6877.39
6871.16
6864.93
6858.71
6852.49
6846.29
6840.12
6833.97
6827.85
6821.78
6815.74
6809.76
6803.84
6797.97
6792.17
6786.43
6780.77
6775.18
6769.67
6764.24
6758.89
6753.63
6748.46
6743.38
6738.4
6733.51
6728.71
6724.01
6719.41
6714.9
6710.49
6706.18
6701.97
6697.85
6693.83
6689.91
6686.08
6682.34
6678.7
6675.16
6671.7
6668.33
6665.05
6661.86
6658.76
6655.73
6652.79
6649.93
6647.15
6644.44
6641.8
6639.24
6636.75
6634.33
6631.98
6629.68
6627.46
6625.29
6623.18
6621.13
6619.14
6617.2
6615.32
6613.48
6611.7
6609.97
6608.28
6606.65
6605.05
6603.51
6602
6600.54
6599.13
6597.76
6596.43
6595.15
6593.91
6592.72
6591.58
6590.49
6589.46
6588.47
6587.54
6586.66
6585.83
6585.06
6584.35
6583.69
6583.1
6582.56
6582.07
6581.65
6581.28
6580.97
6580.71
6580.52
6580.37
6580.28
6580.25
6580.27
6580.34
6580.46
6580.62
6580.84
6581.1
6581.41
6581.76
6582.15
6582.59
6583.05
6583.56
6584.1
6584.68
6585.28
6585.92
6586.57
6587.27
6587.97
6588.71
6589.46