/*--------------------------------*- C++ -*----------------------------------*\
| =========                 |                                                 |
| \\      /  F ield         | OpenFOAM: The Open Source CFD Toolbox           |
|  \\    /   O peration     | Version:  v2006                                 |
|   \\  /    A nd           | Website:  www.openfoam.com                      |
|    \\/     M anipulation  |                                                 |
\*---------------------------------------------------------------------------*/
FoamFile
{
    version     2.0;
    format      ascii;
    class       volScalarField;
    location    "6.1";
    object      p_rgh;
}
// * * * * * * * * * * * * * * * * * * * * * * * * * * * * * * * * * * * * * //

dimensions      [1 -1 -2 0 0 0 0];


internalField   nonuniform List<scalar> 
33000
(
7512.34
7501.13
7497.23
7489.86
7483.55
7476.84
7470.13
7463.38
7456.74
7450.11
7443.45
7436.8
7430.25
7424.04
7418.29
7413.02
7408.03
7403.03
7398.26
7393.39
7387.71
7381.62
7375.87
7370.12
7364.43
7358.84
7353.33
7347.89
7342.52
7337.2
7331.96
7326.87
7321.81
7316.81
7311.94
7307.17
7302.48
7297.85
7293.3
7288.85
7284.53
7280.36
7276.31
7272.33
7268.47
7264.71
7261.07
7257.53
7254.14
7250.91
7247.82
7244.84
7241.98
7239.25
7236.67
7234.2
7231.86
7229.67
7227.66
7225.73
7223.98
7222.4
7220.99
7219.74
7218.62
7217.66
7216.88
7216.27
7215.8
7215.47
7215.29
7215.25
7215.35
7215.56
7215.84
7216.27
7217.09
7216.74
7211.72
7210.23
7213.98
7211.31
7213.89
7213.41
7213.89
7214.97
7216.71
7218.21
7219.7
7221.61
7223.2
7225.07
7226.91
7229.15
7230.86
7233.11
7234.25
7235.97
7235.27
7236.53
7242.59
7245.42
7249.15
7253.36
7257.44
7262.37
7267.98
7273.28
7278.9
7284.36
7290.19
7296.02
7301.98
7308.49
7314.1
7320.59
7324.69
7331.16
7341.47
7349.04
7357.91
7366.9
7375.87
7385.61
7396.03
7406.42
7417.3
7428.31
7439.57
7451.13
7463.02
7475.06
7487.42
7499.87
7512.6
7525.49
7538.57
7551.87
7565.32
7578.98
7592.77
7606.71
7620.78
7635.02
7649.36
7663.84
7678.38
7692.99
7707.65
7722.33
7737.05
7751.83
7766.59
7781.32
7796.01
7810.64
7825.22
7839.73
7854.17
7868.5
7882.71
7896.8
7910.75
7924.55
7938.19
7951.68
7964.99
7978.1
7991
8003.71
8016.22
8028.49
8040.53
8052.32
8063.86
8075.17
8086.23
8097.01
8107.51
8117.74
8127.69
8137.36
8146.74
8155.86
8164.68
8173.22
8181.46
8189.39
8197.04
8204.4
8211.49
8218.29
8224.8
8231.03
8236.98
8242.67
8248.12
8253.31
8258.26
8262.97
8267.44
8271.69
8275.73
8279.59
8283.27
8286.78
8290.13
8293.32
8296.38
8299.32
8302.17
8304.91
8307.57
8310.14
8312.66
8315.1
8317.44
8319.67
8321.79
8323.79
8325.68
8327.45
8329.08
8330.57
8331.91
8333.09
8334.13
8335.03
8335.76
8336.34
8336.75
8336.99
8337.06
8336.98
8336.73
8336.3
8335.71
8334.94
8334
8332.89
8331.61
8330.15
8328.52
8326.73
8324.77
8322.64
8320.33
8317.86
8315.22
8312.43
8309.48
8306.36
8303.09
8299.66
8296.08
8292.35
8288.48
8284.47
8280.32
8276.03
8271.61
8267.06
8262.39
8257.6
8252.7
8247.68
8242.56
8237.34
8232.03
8226.63
8221.14
8215.57
8209.93
8204.21
8198.44
8192.62
8186.75
8180.83
8174.87
8168.88
8162.86
8156.82
8150.77
8144.72
8138.66
8132.6
8126.56
8120.52
8114.51
8108.52
8102.57
8096.66
8090.78
8084.95
8079.17
8073.45
8067.78
8062.18
8056.64
8051.18
8045.79
8040.47
8035.24
8030.08
8025.01
8020.02
8015.13
8010.32
8005.6
8000.97
7996.43
7991.98
7987.63
7983.37
7979.21
7975.14
7971.15
7967.27
7963.47
7959.76
7956.14
7952.61
7949.16
7945.8
7942.53
7939.34
7936.23
7933.2
7930.26
7927.39
7924.6
7921.88
7919.24
7916.68
7914.18
7911.76
7909.4
7907.11
7904.88
7902.72
7900.61
7898.57
7896.59
7894.66
7892.78
7890.96
7889.19
7887.47
7885.8
7884.18
7882.61
7881.09
7879.61
7878.18
7876.79
7875.45
7874.15
7872.9
7871.69
7870.52
7869.4
7868.33
7867.31
7866.34
7865.42
7864.55
7863.74
7862.98
7862.27
7861.62
7861.02
7860.47
7859.98
7859.55
7859.16
7858.83
7858.56
7858.33
7858.16
7858.03
7857.96
7857.94
7857.97
7858.04
7858.16
7858.32
7858.53
7858.78
7859.07
7859.41
7859.77
7860.18
7860.62
7861.09
7861.6
7862.13
7862.7
7863.29
7863.9
7864.54
7865.2
7865.89
7866.59
7867.31
7868.04
7868.79
7869.55
7870.33
7871.12
7871.91
7872.72
7873.53
7874.35
7875.17
7876
7876.83
7877.67
7878.5
7879.34
7880.18
7881.01
7881.85
7882.68
7883.51
7884.33
7885.16
7885.98
7886.8
7887.6
7888.41
7889.2
7889.98
7890.76
7891.53
7892.29
7893.06
7893.8
7894.55
7895.28
7896
7896.71
7897.4
7898.09
7898.76
7899.43
7900.08
7900.72
7901.32
7901.95
7902.56
7903.15
7903.72
7904.29
7904.83
7905.36
7905.87
7906.38
7906.87
7907.36
7907.8
7908.27
7908.69
7909.13
7909.54
7909.93
7910.28
7910.7
7910.9
7911.42
7911.75
7911.95
7912.15
7912.38
7912.61
7912.85
7913.09
7913.33
7913.57
7913.81
7914.05
7914.28
7914.52
7914.74
7914.97
7915.19
7915.4
7915.61
7915.82
7916.02
7916.21
7916.41
7916.59
7916.77
7916.95
7917.12
7917.29
7917.45
7917.61
7917.76
7917.9
7918.04
7918.18
7918.31
7918.43
7918.55
7918.67
7918.78
7918.88
7918.98
7919.08
7919.17
7919.25
7919.33
7919.4
7919.47
7919.54
7919.59
7919.65
7919.7
7919.74
7919.78
7919.81
7919.84
7919.87
7919.89
7919.9
7919.91
7919.92
7919.92
7919.91
7919.9
7919.89
7919.87
7919.85
7919.82
7919.78
7919.75
7919.7
7919.66
7919.6
7919.55
7919.49
7919.42
7919.35
7919.27
7919.19
7919.11
7919.01
7918.96
7918.73
7512.36
7500.97
7497.54
7489.5
7483.21
7476.33
7469.6
7462.89
7456.29
7449.73
7443.1
7436.39
7429.64
7423.15
7417.21
7411.92
7406.83
7401.72
7396.81
7391.92
7386.47
7380.88
7375.25
7369.68
7364.1
7358.55
7353.05
7347.59
7342.11
7336.8
7331.61
7326.59
7321.52
7316.48
7311.61
7306.93
7302.24
7297.59
7292.92
7288.45
7284.15
7279.98
7276.02
7272.06
7268.2
7264.37
7260.64
7257.14
7253.76
7250.56
7247.51
7244.53
7241.66
7238.93
7236.33
7233.87
7231.48
7229.18
7227.16
7225.31
7223.56
7221.98
7220.63
7219.3
7218.1
7217.15
7216.46
7215.83
7215.31
7214.92
7214.59
7214.38
7214.36
7214.48
7214.73
7215.02
7214.83
7214.23
7214.39
7215.45
7214.24
7208.8
7208.45
7213.8
7212.89
7216.29
7216.13
7219.16
7218.32
7220.88
7223
7224.81
7226.84
7228.86
7230.8
7232.84
7234.83
7236.56
7238.62
7238.98
7241.89
7241.42
7244.69
7253.97
7258.09
7263.64
7267.77
7273.12
7277.58
7283.26
7289.71
7295.75
7301.92
7308.25
7314.4
7320.85
7327.41
7333.77
7341.68
7346.23
7354.64
7366.6
7375.86
7385.87
7395.78
7405.71
7416.48
7427.89
7439.22
7450.88
7462.66
7474.7
7487.02
7499.58
7512.29
7525.29
7538.36
7551.67
7565.09
7578.76
7592.55
7606.49
7620.59
7634.83
7649.19
7663.66
7678.26
7692.89
7707.54
7722.23
7736.98
7751.76
7766.58
7781.32
7796.02
7810.66
7825.26
7839.79
7854.22
7868.57
7882.82
7896.92
7910.88
7924.68
7938.32
7951.85
7965.17
7978.28
7991.18
8003.89
8016.44
8028.73
8040.76
8052.53
8064.09
8075.42
8086.49
8097.26
8107.76
8118
8127.98
8137.64
8147
8156.1
8164.93
8173.49
8181.73
8189.66
8197.29
8204.63
8211.72
8218.52
8225.03
8231.26
8237.2
8242.88
8248.31
8253.48
8258.45
8263.16
8267.63
8271.86
8275.89
8279.75
8283.42
8286.94
8290.29
8293.47
8296.52
8299.47
8302.32
8305.07
8307.72
8310.28
8312.81
8315.26
8317.61
8319.85
8321.96
8323.96
8325.85
8327.62
8329.27
8330.76
8332.11
8333.28
8334.32
8335.21
8335.95
8336.55
8336.96
8337.21
8337.27
8337.18
8336.93
8336.51
8335.93
8335.17
8334.23
8333.12
8331.83
8330.36
8328.73
8326.94
8324.98
8322.86
8320.56
8318.09
8315.43
8312.64
8309.7
8306.59
8303.31
8299.88
8296.29
8292.57
8288.69
8284.68
8280.53
8276.24
8271.82
8267.26
8262.59
8257.8
8252.9
8247.87
8242.74
8237.52
8232.2
8226.8
8221.31
8215.74
8210.09
8204.37
8198.59
8192.76
8186.88
8180.95
8174.99
8168.99
8162.97
8156.92
8150.85
8144.79
8138.73
8132.67
8126.61
8120.57
8114.55
8108.56
8102.6
8096.67
8090.79
8084.96
8079.17
8073.43
8067.76
8062.15
8056.61
8051.14
8045.75
8040.42
8035.18
8030.02
8024.95
8019.96
8015.06
8010.24
8005.52
8000.89
7996.35
7991.9
7987.54
7983.28
7979.12
7975.04
7971.06
7967.17
7963.37
7959.66
7956.04
7952.5
7949.06
7945.7
7942.43
7939.24
7936.13
7933.1
7930.16
7927.29
7924.5
7921.78
7919.14
7916.58
7914.08
7911.66
7909.3
7907.01
7904.79
7902.62
7900.52
7898.48
7896.49
7894.56
7892.68
7890.86
7889.09
7887.37
7885.71
7884.08
7882.51
7880.99
7879.51
7878.08
7876.69
7875.35
7874.05
7872.79
7871.58
7870.41
7869.29
7868.22
7867.2
7866.22
7865.3
7864.43
7863.62
7862.86
7862.15
7861.5
7860.9
7860.35
7859.86
7859.42
7859.04
7858.71
7858.44
7858.21
7858.04
7857.92
7857.85
7857.83
7857.86
7857.93
7858.05
7858.22
7858.43
7858.68
7858.98
7859.31
7859.68
7860.09
7860.54
7861.01
7861.52
7862.06
7862.63
7863.22
7863.84
7864.48
7865.14
7865.83
7866.53
7867.26
7867.99
7868.75
7869.51
7870.29
7871.08
7871.88
7872.69
7873.51
7874.33
7875.15
7875.98
7876.82
7877.66
7878.5
7879.33
7880.17
7881.01
7881.85
7882.68
7883.52
7884.35
7885.17
7885.99
7886.8
7887.59
7888.4
7889.19
7889.99
7890.76
7891.55
7892.31
7893.08
7893.82
7894.57
7895.3
7896.01
7896.74
7897.42
7898.13
7898.79
7899.44
7900.07
7900.76
7901.35
7902
7902.59
7903.19
7903.76
7904.32
7904.87
7905.38
7905.92
7906.4
7906.92
7907.36
7907.87
7908.29
7908.76
7909.11
7909.61
7909.82
7910.44
7910.82
7911.07
7911.31
7911.58
7911.85
7912.11
7912.36
7912.61
7912.86
7913.1
7913.35
7913.59
7913.83
7914.07
7914.31
7914.54
7914.76
7914.99
7915.2
7915.42
7915.63
7915.83
7916.03
7916.23
7916.42
7916.61
7916.79
7916.96
7917.14
7917.3
7917.46
7917.62
7917.77
7917.92
7918.06
7918.19
7918.32
7918.45
7918.57
7918.69
7918.8
7918.9
7919
7919.09
7919.18
7919.27
7919.34
7919.42
7919.49
7919.55
7919.61
7919.66
7919.71
7919.75
7919.79
7919.83
7919.86
7919.88
7919.9
7919.91
7919.92
7919.93
7919.93
7919.92
7919.91
7919.9
7919.88
7919.86
7919.83
7919.8
7919.76
7919.71
7919.67
7919.62
7919.56
7919.5
7919.43
7919.36
7919.29
7919.21
7919.13
7919.02
7918.98
7918.75
7514.83
7502.11
7498.39
7489.65
7483.05
7476.05
7469.28
7462.61
7456.04
7449.54
7443.02
7436.48
7429.98
7423.64
7417.62
7412.11
7406.88
7401.65
7396.43
7391.15
7385.7
7380.13
7374.48
7368.9
7363.41
7358
7352.53
7347.03
7341.47
7336.18
7330.99
7325.86
7320.81
7316.08
7311.26
7306.45
7301.74
7297.11
7292.52
7287.88
7283.45
7279.35
7275.44
7271.49
7267.62
7263.79
7259.98
7256.41
7253.02
7249.78
7246.85
7243.88
7241
7238.26
7235.67
7233.19
7230.72
7228.41
7226.38
7224.58
7223
7221.35
7219.68
7218.42
7217.28
7216.27
7215.54
7215.04
7214.51
7214.07
7213.66
7213.37
7213.27
7213.29
7213.52
7213.59
7213.46
7213.19
7213
7212.97
7213.14
7213.94
7215.41
7214.32
7208.92
7209.67
7216.21
7217.88
7218.98
7221.69
7222.9
7224.02
7226.15
7228.99
7230.79
7233.2
7234.93
7237.1
7239.33
7241.82
7244.97
7248.53
7249.4
7253.16
7252.74
7257.19
7267.92
7273.44
7279.64
7284.2
7289.87
7294.84
7301.06
7308.16
7314.5
7321.23
7327.84
7334.96
7342.83
7351.03
7358.49
7367.11
7372.43
7381.76
7395.23
7405.68
7416.76
7427.51
7438.22
7449.72
7462.06
7474.08
7486.67
7499.08
7511.81
7524.5
7537.58
7550.94
7564.49
7578.24
7592.06
7606.02
7620.13
7634.43
7648.82
7663.41
7678
7692.61
7707.27
7722.05
7736.86
7751.75
7766.55
7781.27
7795.96
7810.67
7825.39
7839.98
7854.4
7868.72
7882.96
7897.13
7911.14
7924.94
7938.63
7952.17
7965.54
7978.64
7991.55
8004.3
8016.87
8029.19
8041.2
8053
8064.58
8075.9
8087
8097.8
8108.29
8118.56
8128.52
8138.16
8147.53
8156.63
8165.44
8174.03
8182.27
8190.21
8197.83
8205.12
8212.17
8218.94
8225.49
8231.74
8237.69
8243.34
8248.72
8253.88
8258.83
8263.56
8268.01
8272.22
8276.25
8280.12
8283.82
8287.31
8290.64
8293.81
8296.87
8299.83
8302.69
8305.44
8308.05
8310.63
8313.17
8315.63
8317.97
8320.22
8322.34
8324.32
8326.21
8327.99
8329.66
8331.16
8332.51
8333.68
8334.72
8335.61
8336.38
8336.97
8337.39
8337.63
8337.69
8337.6
8337.38
8336.97
8336.38
8335.61
8334.67
8333.54
8332.24
8330.79
8329.17
8327.4
8325.45
8323.31
8321.01
8318.53
8315.87
8313.08
8310.14
8307.04
8303.76
8300.32
8296.73
8293.01
8289.15
8285.13
8280.96
8276.64
8272.22
8267.69
8263.02
8258.22
8253.3
8248.26
8243.12
8237.89
8232.57
8227.16
8221.66
8216.07
8210.41
8204.68
8198.88
8193.03
8187.14
8181.2
8175.23
8169.22
8163.18
8157.11
8151.03
8144.95
8138.87
8132.79
8126.72
8120.67
8114.63
8108.62
8102.64
8096.7
8090.81
8084.95
8079.15
8073.41
8067.72
8062.1
8056.54
8051.06
8045.66
8040.33
8035.07
8029.9
8024.81
8019.82
8014.91
8010.09
8005.36
8000.72
7996.17
7991.72
7987.36
7983.09
7978.92
7974.84
7970.86
7966.96
7963.16
7959.45
7955.82
7952.29
7948.85
7945.49
7942.21
7939.02
7935.92
7932.89
7929.95
7927.08
7924.29
7921.58
7918.94
7916.38
7913.88
7911.46
7909.1
7906.81
7904.59
7902.42
7900.32
7898.28
7896.29
7894.36
7892.48
7890.66
7888.89
7887.18
7885.51
7883.89
7882.31
7880.79
7879.31
7877.87
7876.48
7875.13
7873.82
7872.56
7871.35
7870.18
7869.06
7867.98
7866.96
7865.99
7865.06
7864.19
7863.38
7862.61
7861.9
7861.25
7860.65
7860.11
7859.62
7859.18
7858.8
7858.47
7858.2
7857.97
7857.81
7857.69
7857.62
7857.6
7857.64
7857.72
7857.84
7858.01
7858.23
7858.49
7858.79
7859.13
7859.51
7859.92
7860.37
7860.85
7861.37
7861.91
7862.49
7863.09
7863.71
7864.36
7865.03
7865.72
7866.44
7867.16
7867.91
7868.67
7869.44
7870.23
7871.02
7871.83
7872.64
7873.46
7874.29
7875.12
7875.95
7876.8
7877.63
7878.48
7879.32
7880.17
7881.01
7881.86
7882.69
7883.53
7884.35
7885.16
7885.98
7886.79
7887.6
7888.41
7889.21
7890
7890.79
7891.57
7892.34
7893.11
7893.86
7894.61
7895.35
7896.08
7896.79
7897.47
7898.15
7898.86
7899.51
7900.18
7900.81
7901.44
7902.06
7902.65
7903.25
7903.82
7904.38
7904.91
7905.46
7905.95
7906.5
7906.96
7907.48
7907.87
7908.42
7908.65
7909.35
7909.76
7910.04
7910.31
7910.61
7910.9
7911.18
7911.47
7911.76
7912.04
7912.31
7912.56
7912.82
7913.07
7913.32
7913.57
7913.82
7914.06
7914.3
7914.53
7914.76
7914.99
7915.21
7915.43
7915.64
7915.85
7916.05
7916.25
7916.44
7916.63
7916.81
7916.99
7917.16
7917.33
7917.49
7917.64
7917.79
7917.94
7918.08
7918.21
7918.34
7918.47
7918.59
7918.7
7918.81
7918.92
7919.02
7919.11
7919.2
7919.29
7919.36
7919.44
7919.51
7919.57
7919.63
7919.68
7919.73
7919.78
7919.82
7919.85
7919.88
7919.9
7919.92
7919.94
7919.95
7919.95
7919.95
7919.95
7919.94
7919.92
7919.9
7919.88
7919.85
7919.82
7919.78
7919.74
7919.69
7919.64
7919.58
7919.52
7919.45
7919.38
7919.31
7919.23
7919.15
7919.04
7919
7918.77
7518.54
7503.02
7499.48
7489.36
7482.56
7475.35
7468.49
7461.85
7455.38
7449
7442.65
7436.3
7429.99
7423.79
7417.78
7412
7406.41
7400.93
7395.54
7390.19
7384.78
7379.28
7373.65
7368.03
7362.6
7357.24
7351.81
7346.38
7340.82
7335.31
7330.11
7325.04
7320.33
7315.41
7310.5
7305.67
7300.94
7296.3
7291.72
7287.2
7282.82
7278.65
7274.59
7270.6
7266.7
7262.91
7259.18
7255.43
7251.93
7248.86
7245.88
7242.88
7240
7237.25
7234.64
7232.16
7229.76
7227.48
7225.51
7223.81
7222.11
7220.37
7218.65
7217.25
7216.08
7215.1
7214.27
7213.87
7213.38
7212.94
7212.6
7212.29
7211.99
7211.92
7212.07
7212.22
7212.26
7212.3
7212.26
7212.13
7212.02
7212.21
7212.83
7213.91
7215.34
7217.03
7219.32
7219.33
7214.31
7216.22
7223.54
7223.57
7227.84
7228.35
7229.87
7232.27
7235.67
7237.95
7240.74
7242.99
7246.04
7248.66
7252.1
7257.23
7260.61
7265.45
7267.91
7272.27
7272.47
7277.86
7289.37
7295.59
7301.69
7307.92
7313.81
7320.59
7328.34
7335.53
7343.32
7350.8
7359.27
7368.12
7377.42
7385.68
7395.53
7401.62
7411.92
7426.45
7437.72
7449.63
7461.29
7472.75
7485.18
7498.24
7510.99
7524.15
7537.05
7550.38
7563.71
7577.46
7591.44
7605.48
7619.6
7633.89
7648.36
7662.99
7677.64
7692.24
7706.99
7721.81
7736.75
7751.67
7766.47
7781.19
7795.99
7810.73
7825.51
7840.17
7854.66
7868.99
7883.26
7897.42
7911.44
7925.33
7939.11
7952.71
7966.08
7979.18
7992.14
8004.91
8017.48
8029.88
8041.93
8053.73
8065.32
8076.65
8087.72
8098.58
8109.16
8119.41
8129.34
8138.94
8148.33
8157.43
8166.28
8174.86
8183.08
8191.01
8198.61
8205.87
8212.9
8219.66
8226.15
8232.44
8238.39
8244.05
8249.4
8254.52
8259.45
8264.18
8268.65
8272.86
8276.85
8280.73
8284.4
8287.9
8291.22
8294.4
8297.49
8300.47
8303.31
8306.04
8308.64
8311.23
8313.74
8316.22
8318.57
8320.81
8322.9
8324.89
8326.78
8328.58
8330.26
8331.76
8333.12
8334.32
8335.34
8336.23
8336.97
8337.57
8338.02
8338.28
8338.36
8338.25
8338.01
8337.62
8337.04
8336.27
8335.3
8334.18
8332.9
8331.46
8329.88
8328.09
8326.12
8323.98
8321.63
8319.17
8316.54
8313.77
8310.83
8307.71
8304.39
8300.96
8297.41
8293.69
8289.81
8285.78
8281.58
8277.28
8272.85
8268.31
8263.64
8258.83
8253.91
8248.86
8243.69
8238.44
8233.12
8227.7
8222.18
8216.57
8210.87
8205.14
8199.34
8193.48
8187.54
8181.57
8175.57
8169.55
8163.49
8157.39
8151.29
8145.18
8139.09
8132.98
8126.87
8120.78
8114.74
8108.72
8102.71
8096.75
8090.82
8084.94
8079.13
8073.37
8067.67
8062.02
8056.44
8050.93
8045.52
8040.18
8034.91
8029.71
8024.62
8019.62
8014.7
8009.85
8005.12
8000.48
7995.92
7991.46
7987.08
7982.81
7978.64
7974.55
7970.56
7966.66
7962.85
7959.13
7955.51
7951.98
7948.54
7945.18
7941.9
7938.71
7935.61
7932.59
7929.65
7926.78
7923.99
7921.28
7918.64
7916.08
7913.59
7911.16
7908.8
7906.52
7904.29
7902.12
7900.02
7897.98
7895.99
7894.06
7892.18
7890.36
7888.59
7886.87
7885.2
7883.58
7882
7880.47
7878.99
7877.55
7876.15
7874.8
7873.49
7872.22
7871
7869.83
7868.7
7867.63
7866.6
7865.63
7864.7
7863.83
7863.01
7862.24
7861.54
7860.88
7860.28
7859.73
7859.25
7858.81
7858.43
7858.11
7857.84
7857.62
7857.46
7857.34
7857.28
7857.27
7857.31
7857.39
7857.52
7857.7
7857.93
7858.2
7858.5
7858.85
7859.24
7859.66
7860.12
7860.61
7861.13
7861.69
7862.27
7862.89
7863.52
7864.18
7864.86
7865.56
7866.28
7867.02
7867.77
7868.54
7869.32
7870.12
7870.92
7871.74
7872.56
7873.39
7874.22
7875.06
7875.91
7876.75
7877.6
7878.45
7879.31
7880.16
7881.01
7881.85
7882.66
7883.51
7884.32
7885.16
7885.98
7886.81
7887.61
7888.44
7889.24
7890.05
7890.83
7891.63
7892.4
7893.19
7893.94
7894.68
7895.41
7896.12
7896.87
7897.55
7898.28
7898.92
7899.61
7900.24
7900.92
7901.52
7902.17
7902.74
7903.37
7903.91
7904.5
7905.05
7905.54
7906.08
7906.51
7907.12
7907.38
7908.14
7908.6
7908.9
7909.2
7909.53
7909.85
7910.19
7910.53
7910.85
7911.16
7911.45
7911.74
7912.02
7912.3
7912.57
7912.83
7913.1
7913.35
7913.61
7913.85
7914.1
7914.34
7914.57
7914.8
7915.03
7915.25
7915.47
7915.68
7915.89
7916.09
7916.29
7916.48
7916.67
7916.85
7917.03
7917.2
7917.36
7917.53
7917.68
7917.83
7917.98
7918.12
7918.26
7918.39
7918.51
7918.63
7918.75
7918.85
7918.96
7919.06
7919.15
7919.24
7919.32
7919.4
7919.48
7919.55
7919.61
7919.67
7919.72
7919.77
7919.81
7919.85
7919.89
7919.92
7919.94
7919.96
7919.97
7919.98
7919.99
7919.99
7919.98
7919.97
7919.96
7919.94
7919.91
7919.89
7919.85
7919.82
7919.77
7919.72
7919.67
7919.62
7919.55
7919.49
7919.42
7919.34
7919.26
7919.18
7919.08
7919.03
7918.81
7519.99
7502.14
7500.03
7488
7480.99
7473.69
7467.04
7460.52
7454.19
7447.98
7441.81
7435.68
7429.58
7423.54
7417.6
7411.76
7406.04
7400.41
7394.84
7389.32
7383.82
7378.31
7372.75
7367.2
7361.72
7356.3
7350.87
7345.48
7340.07
7334.59
7329.29
7324.38
7319.39
7314.38
7309.45
7304.61
7299.85
7295.19
7290.6
7286.11
7281.74
7277.5
7273.37
7269.35
7265.44
7261.63
7257.93
7254.31
7250.79
7247.49
7244.46
7241.46
7238.59
7235.85
7233.22
7230.75
7228.42
7226.23
7224.22
7222.36
7220.67
7219.04
7217.48
7215.84
7214.55
7213.53
7212.81
7212.46
7211.9
7211.43
7211.09
7210.87
7210.69
7210.53
7210.47
7210.66
7210.85
7211.04
7211.3
7211.62
7211.91
7212.06
7212.37
7212.89
7213.95
7215.8
7217.78
7219.77
7221.98
7224.79
7224.58
7219.12
7221.52
7230.38
7230.6
7234.52
7235.49
7237.31
7240.57
7244.76
7247.74
7251.14
7254.18
7258.01
7261.61
7266.2
7271.78
7275.7
7281.82
7284.19
7289.56
7289.89
7295.74
7308.4
7315.1
7321.81
7328.69
7335.37
7343.17
7352.08
7360.23
7368.93
7377.25
7386.78
7396.86
7407.25
7416.38
7426.87
7433.47
7444.54
7460.53
7472.37
7485.52
7497.3
7510.02
7522.16
7535.28
7548.99
7562.51
7576.43
7590.33
7604.53
7618.78
7633.19
7647.66
7662.4
7677.03
7691.69
7706.54
7721.52
7736.58
7751.52
7766.3
7781.15
7796.02
7810.86
7825.75
7840.45
7855.01
7869.44
7883.68
7897.9
7911.97
7925.94
7939.81
7953.42
7966.8
7979.93
7992.94
8005.75
8018.34
8030.81
8042.95
8054.74
8066.31
8077.67
8088.78
8099.7
8110.26
8120.5
8130.38
8140.02
8149.42
8158.56
8167.46
8175.97
8184.18
8192.08
8199.67
8206.91
8213.92
8220.67
8227.14
8233.42
8239.36
8245.01
8250.39
8255.46
8260.35
8265.06
8269.55
8273.79
8277.81
8281.56
8285.21
8288.71
8292.07
8295.35
8298.43
8301.39
8304.22
8306.9
8309.53
8312.11
8314.64
8317.1
8319.43
8321.64
8323.71
8325.71
8327.62
8329.44
8331.09
8332.54
8333.89
8335.14
8336.25
8337.15
8337.84
8338.39
8338.81
8339.07
8339.17
8339.13
8338.93
8338.52
8337.93
8337.14
8336.16
8335.06
8333.78
8332.38
8330.78
8328.98
8326.98
8324.82
8322.52
8320.05
8317.44
8314.68
8311.73
8308.58
8305.26
8301.83
8298.25
8294.56
8290.69
8286.62
8282.43
8278.12
8273.69
8269.15
8264.47
8259.64
8254.71
8249.65
8244.46
8239.19
8233.84
8228.41
8222.86
8217.21
8211.51
8205.75
8199.94
8194.05
8188.09
8182.07
8176.04
8169.98
8163.9
8157.78
8151.66
8145.53
8139.37
8133.21
8127.08
8120.98
8114.91
8108.85
8102.82
8096.81
8090.85
8084.94
8079.1
8073.33
8067.6
8061.93
8056.31
8050.79
8045.35
8039.98
8034.68
8029.48
8024.37
8019.36
8014.42
8009.56
8004.8
8000.16
7995.59
7991.11
7986.72
7982.44
7978.25
7974.17
7970.17
7966.25
7962.44
7958.72
7955.1
7951.57
7948.12
7944.76
7941.48
7938.29
7935.18
7932.17
7929.23
7926.37
7923.58
7920.87
7918.23
7915.67
7913.18
7910.76
7908.4
7906.11
7903.88
7901.71
7899.61
7897.56
7895.58
7893.65
7891.78
7889.95
7888.18
7886.46
7884.78
7883.15
7881.57
7880.04
7878.55
7877.11
7875.7
7874.34
7873.03
7871.76
7870.54
7869.36
7868.23
7867.15
7866.12
7865.14
7864.21
7863.34
7862.51
7861.75
7861.04
7860.38
7859.78
7859.24
7858.75
7858.32
7857.94
7857.62
7857.35
7857.14
7856.98
7856.88
7856.82
7856.82
7856.86
7856.96
7857.1
7857.29
7857.52
7857.8
7858.12
7858.48
7858.88
7859.31
7859.79
7860.29
7860.83
7861.39
7861.99
7862.62
7863.27
7863.94
7864.63
7865.34
7866.08
7866.83
7867.6
7868.38
7869.18
7869.98
7870.8
7871.62
7872.46
7873.3
7874.14
7875
7875.85
7876.72
7877.57
7878.43
7879.28
7880.1
7880.96
7881.79
7882.64
7883.47
7884.32
7885.15
7885.99
7886.82
7887.65
7888.47
7889.28
7890.09
7890.9
7891.7
7892.46
7893.24
7894.01
7894.78
7895.51
7896.24
7896.95
7897.67
7898.35
7899.06
7899.71
7900.4
7901.01
7901.69
7902.26
7902.91
7903.49
7904.05
7904.62
7905.14
7905.68
7906.04
7906.83
7907.33
7907.65
7907.98
7908.34
7908.7
7909.07
7909.43
7909.78
7910.13
7910.46
7910.79
7911.1
7911.41
7911.71
7912
7912.28
7912.56
7912.83
7913.1
7913.36
7913.62
7913.87
7914.12
7914.36
7914.6
7914.84
7915.07
7915.29
7915.51
7915.72
7915.93
7916.13
7916.33
7916.53
7916.72
7916.9
7917.07
7917.25
7917.41
7917.57
7917.73
7917.88
7918.03
7918.17
7918.3
7918.43
7918.56
7918.68
7918.8
7918.9
7919.01
7919.11
7919.2
7919.29
7919.37
7919.45
7919.53
7919.59
7919.66
7919.72
7919.77
7919.82
7919.86
7919.9
7919.93
7919.96
7919.99
7920.01
7920.02
7920.03
7920.03
7920.03
7920.03
7920.02
7920
7919.99
7919.96
7919.93
7919.9
7919.86
7919.82
7919.77
7919.72
7919.66
7919.6
7919.53
7919.46
7919.39
7919.31
7919.23
7919.12
7919.08
7918.85
7514.38
7499.81
7496.88
7484.51
7477.49
7470.31
7464.67
7458.53
7452.45
7446.46
7440.51
7434.56
7428.62
7422.71
7416.84
7411.04
7405.3
7399.62
7394
7388.41
7382.84
7377.28
7371.73
7366.19
7360.67
7355.18
7349.73
7344.34
7338.98
7333.65
7328.4
7323.25
7318.13
7313.09
7308.12
7303.2
7298.4
7293.74
7289.17
7284.67
7280.28
7275.97
7271.73
7267.64
7263.74
7259.98
7256.27
7252.7
7249.23
7245.75
7242.14
7238.86
7236.67
7234.06
7231.44
7228.97
7226.64
7224.45
7222.43
7220.55
7218.84
7217.25
7215.76
7214.41
7213
7211.62
7210.94
7210.62
7210.07
7209.61
7209.28
7209.07
7208.95
7208.9
7208.94
7208.91
7208.86
7209.26
7209.91
7210.43
7211.03
7211.67
7212.21
7213.05
7214.18
7215.8
7217.25
7218.58
7220.26
7222.35
7224.43
7227.19
7230.68
7230.55
7224.77
7227.89
7237.9
7238.33
7243.4
7245.03
7247.56
7251.39
7256.17
7260.3
7264.19
7268.68
7272.64
7277.59
7281.69
7287.05
7292.87
7299.02
7302.44
7308.42
7309.04
7315.36
7329.33
7336.87
7344.52
7352.28
7359.89
7368.5
7378.43
7387.64
7397.37
7406.72
7417.08
7427.93
7439.11
7448.86
7460.47
7467.63
7479.58
7496.01
7508.98
7522.69
7535.28
7548.55
7561.03
7574.77
7589.26
7603.58
7618.02
7632.44
7646.95
7661.57
7676.26
7691.11
7706.17
7721.33
7736.35
7751.36
7766.31
7781.13
7796.08
7811.13
7826.02
7840.74
7855.39
7869.92
7884.28
7898.46
7912.62
7926.75
7940.61
7954.26
7967.74
7980.96
7993.93
8006.81
8019.57
8032
8044.16
8056.04
8067.59
8078.96
8090.21
8101.08
8111.64
8121.87
8131.74
8141.41
8150.89
8160.08
8168.89
8177.38
8185.55
8193.41
8201.02
8208.33
8215.31
8221.99
8228.51
8234.7
8240.6
8246.27
8251.66
8256.78
8261.61
8266.3
8270.75
8275
8279.03
8282.8
8286.43
8289.93
8293.34
8296.61
8299.69
8302.62
8305.38
8308.1
8310.77
8313.42
8315.93
8318.32
8320.56
8322.72
8324.83
8326.89
8328.82
8330.58
8332.14
8333.62
8334.98
8336.23
8337.35
8338.26
8339
8339.53
8339.91
8340.17
8340.26
8340.24
8340.05
8339.64
8339.05
8338.28
8337.28
8336.16
8334.94
8333.53
8331.9
8330.04
8328.06
8325.93
8323.63
8321.22
8318.62
8315.82
8312.84
8309.66
8306.37
8302.93
8299.36
8295.67
8291.78
8287.7
8283.5
8279.19
8274.78
8270.21
8265.49
8260.63
8255.67
8250.62
8245.45
8240.16
8234.79
8229.31
8223.72
8218.04
8212.33
8206.55
8200.7
8194.77
8188.78
8182.73
8176.65
8170.54
8164.44
8158.3
8152.13
8145.95
8139.74
8133.54
8127.38
8121.26
8115.14
8109.03
8102.94
8096.9
8090.92
8085
8079.12
8073.29
8067.53
8061.82
8056.18
8050.64
8045.18
8039.78
8034.45
8029.22
8024.09
8019.05
8014.09
8009.2
8004.44
7999.77
7995.19
7990.7
7986.29
7982
7977.81
7973.71
7969.69
7965.77
7961.96
7958.24
7954.6
7951.06
7947.6
7944.25
7940.97
7937.78
7934.67
7931.65
7928.71
7925.86
7923.07
7920.36
7917.73
7915.17
7912.68
7910.25
7907.89
7905.6
7903.38
7901.2
7899.1
7897.06
7895.07
7893.13
7891.26
7889.43
7887.66
7885.93
7884.25
7882.62
7881.03
7879.49
7878
7876.54
7875.13
7873.77
7872.44
7871.17
7869.94
7868.76
7867.62
7866.54
7865.5
7864.52
7863.59
7862.72
7861.89
7861.12
7860.41
7859.76
7859.16
7858.61
7858.13
7857.7
7857.33
7857.01
7856.75
7856.54
7856.39
7856.29
7856.25
7856.25
7856.31
7856.42
7856.57
7856.77
7857.02
7857.31
7857.64
7858.01
7858.43
7858.88
7859.37
7859.89
7860.44
7861.03
7861.64
7862.28
7862.94
7863.63
7864.34
7865.08
7865.82
7866.6
7867.37
7868.18
7868.98
7869.81
7870.63
7871.47
7872.32
7873.18
7874.05
7874.91
7875.79
7876.65
7877.46
7878.33
7879.16
7880.03
7880.88
7881.76
7882.6
7883.47
7884.31
7885.17
7886.01
7886.86
7887.69
7888.54
7889.36
7890.17
7890.97
7891.78
7892.57
7893.35
7894.11
7894.86
7895.62
7896.34
7897.1
7897.77
7898.53
7899.16
7899.9
7900.49
7901.23
7901.8
7902.49
7903
7903.74
7904.08
7904.97
7905.52
7905.84
7906.23
7906.62
7907.02
7907.43
7907.84
7908.25
7908.65
7909.02
7909.39
7909.74
7910.09
7910.43
7910.76
7911.08
7911.39
7911.7
7912
7912.29
7912.58
7912.86
7913.13
7913.4
7913.66
7913.92
7914.17
7914.41
7914.65
7914.89
7915.12
7915.34
7915.56
7915.78
7915.99
7916.2
7916.39
7916.59
7916.78
7916.96
7917.14
7917.31
7917.48
7917.64
7917.8
7917.95
7918.09
7918.24
7918.37
7918.5
7918.63
7918.74
7918.86
7918.97
7919.07
7919.17
7919.26
7919.35
7919.44
7919.52
7919.59
7919.66
7919.72
7919.78
7919.83
7919.88
7919.92
7919.96
7919.99
7920.02
7920.05
7920.07
7920.08
7920.09
7920.09
7920.09
7920.09
7920.08
7920.06
7920.04
7920.02
7919.99
7919.96
7919.92
7919.88
7919.83
7919.78
7919.72
7919.66
7919.59
7919.52
7919.45
7919.37
7919.29
7919.18
7919.14
7918.91
7504
7490.22
7488.87
7478.63
7472.31
7466.22
7461.23
7456.03
7450.36
7444.69
7438.99
7433.25
7427.48
7421.68
7415.89
7410.12
7404.38
7398.67
7393
7387.36
7381.75
7376.16
7370.58
7364.99
7359.43
7353.92
7348.42
7342.95
7337.55
7332.24
7327.02
7321.8
7316.64
7311.56
7306.48
7301.22
7296.11
7291.91
7287.44
7282.92
7278.5
7274.13
7269.66
7264.97
7260.87
7257.92
7254.3
7250.69
7247.09
7243.09
7239.52
7236.51
7233.66
7231.69
7229.27
7226.81
7224.46
7222.27
7220.24
7218.35
7216.6
7215.01
7213.56
7212.25
7211.1
7210.06
7208.94
7207.92
7207.35
7207.27
7207.11
7206.93
7206.84
7206.85
7206.94
7206.96
7206.95
7207.35
7208
7208.97
7209.75
7210.61
7211.56
7212.5
7213.67
7215.46
7217.12
7218.7
7220.23
7221.69
7223.36
7225.64
7228.2
7230.71
7234.1
7238.2
7238.01
7231.84
7236.08
7247.98
7249.45
7255.21
7256.99
7260.01
7264.72
7270.69
7275.71
7280.59
7285.27
7290.28
7294.85
7299.93
7305.53
7312.36
7319.11
7323.01
7329.67
7330.42
7337.74
7353.48
7362.01
7370.49
7379.14
7387.58
7397.3
7408.52
7418.42
7429.1
7439.18
7450.04
7461.83
7472.97
7485.25
7496.1
7508.21
7516.29
7528.9
7546.57
7560.1
7574.26
7588.04
7601.73
7616.09
7631.24
7645.94
7660.78
7675.45
7690.3
7705.62
7720.86
7735.97
7751.12
7766.19
7781.18
7796.36
7811.43
7826.33
7841.13
7855.78
7870.45
7885
7899.38
7913.57
7927.66
7941.55
7955.27
7968.83
7982.18
7995.31
8008.25
8020.95
8033.4
8045.59
8057.48
8069.16
8080.69
8091.86
8102.73
8113.27
8123.44
8133.39
8143.2
8152.71
8161.82
8170.61
8179.09
8187.18
8194.96
8202.59
8210.05
8217.09
8223.81
8230.19
8236.21
8242.09
8247.79
8253.28
8258.41
8263.3
8267.87
8272.22
8276.49
8280.58
8284.43
8288.04
8291.62
8295.03
8298.25
8301.3
8304.16
8306.98
8309.72
8312.44
8315.06
8317.52
8319.89
8322.13
8324.23
8326.3
8328.32
8330.24
8332
8333.59
8335.01
8336.39
8337.65
8338.72
8339.61
8340.36
8340.95
8341.31
8341.52
8341.61
8341.58
8341.4
8341
8340.41
8339.64
8338.61
8337.55
8336.32
8334.88
8333.26
8331.43
8329.4
8327.27
8325.01
8322.59
8319.96
8317.16
8314.18
8310.98
8307.69
8304.27
8300.73
8297
8293.1
8289.02
8284.78
8280.49
8276.06
8271.46
8266.73
8261.84
8256.83
8251.78
8246.61
8241.31
8235.9
8230.39
8224.75
8219.05
8213.32
8207.51
8201.6
8195.64
8189.61
8183.54
8177.38
8171.24
8165.09
8158.9
8152.69
8146.46
8140.23
8133.97
8127.77
8121.59
8115.41
8109.26
8103.12
8097.05
8091.04
8085.06
8079.13
8073.27
8067.46
8061.71
8056.06
8050.48
8044.96
8039.53
8034.18
8028.93
8023.76
8018.68
8013.7
8008.8
8004
7999.31
7994.71
7990.2
7985.78
7981.48
7977.27
7973.15
7969.13
7965.2
7961.38
7957.64
7954
7950.45
7946.99
7943.63
7940.35
7937.16
7934.06
7931.03
7928.09
7925.22
7922.44
7919.74
7917.1
7914.54
7912.05
7909.63
7907.27
7904.98
7902.75
7900.59
7898.48
7896.43
7894.44
7892.5
7890.62
7888.78
7887
7885.27
7883.59
7881.95
7880.35
7878.8
7877.3
7875.84
7874.43
7873.06
7871.73
7870.45
7869.21
7868.02
7866.88
7865.79
7864.76
7863.77
7862.84
7861.96
7861.13
7860.36
7859.65
7858.99
7858.39
7857.85
7857.37
7856.95
7856.58
7856.27
7856.01
7855.82
7855.67
7855.58
7855.55
7855.57
7855.63
7855.76
7855.92
7856.14
7856.4
7856.71
7857.06
7857.45
7857.88
7858.35
7858.86
7859.4
7859.98
7860.58
7861.22
7861.87