/*--------------------------------*- C++ -*----------------------------------*\
| =========                 |                                                 |
| \\      /  F ield         | OpenFOAM: The Open Source CFD Toolbox           |
|  \\    /   O peration     | Version:  v2006                                 |
|   \\  /    A nd           | Website:  www.openfoam.com                      |
|    \\/     M anipulation  |                                                 |
\*---------------------------------------------------------------------------*/
FoamFile
{
    version     2.0;
    format      ascii;
    class       surfaceScalarField;
    location    "6.1";
    object      phi;
}
// * * * * * * * * * * * * * * * * * * * * * * * * * * * * * * * * * * * * * //

dimensions      [0 3 -1 0 0 0 0];
oriented        oriented;


internalField   nonuniform List<scalar> 
65390
(
-2.67777e-05
4.60753e-06
-2.40038e-05
-2.77409e-06
-1.98013e-05
-4.2027e-06
-1.4566e-05
-5.23549e-06
-9.92073e-06
-4.64537e-06
-5.47667e-06
-4.44416e-06
-2.05045e-06
-3.42631e-06
9.30657e-07
-2.98117e-06
3.90863e-06
-2.97803e-06
7.09391e-06
-3.18532e-06
1.04884e-05
-3.39454e-06
1.35488e-05
-3.06043e-06
1.5639e-05
-2.09024e-06
1.59041e-05
-2.65057e-07
1.39451e-05
1.95895e-06
9.97211e-06
3.97299e-06
4.52585e-06
5.44624e-06
-2.28385e-06
6.80968e-06
-1.14062e-05
9.12239e-06
-2.16517e-05
1.02454e-05
-2.84067e-05
6.75498e-06
-3.18616e-05
3.45496e-06
-3.4617e-05
2.75532e-06
-3.73158e-05
2.69881e-06
-3.92105e-05
1.89469e-06
-4.05645e-05
1.35396e-06
-4.2196e-05
1.63156e-06
-4.40677e-05
1.87166e-06
-4.61096e-05
2.04187e-06
-4.82607e-05
2.15106e-06
-5.02442e-05
1.98353e-06
-5.19407e-05
1.6965e-06
-5.36293e-05
1.6885e-06
-5.53957e-05
1.76644e-06
-5.68752e-05
1.47952e-06
-5.76736e-05
7.98378e-07
-5.81605e-05
4.86883e-07
-5.88054e-05
6.44887e-07
-5.99364e-05
1.1309e-06
-6.16896e-05
1.75325e-06
-6.35725e-05
1.88281e-06
-6.49623e-05
1.38987e-06
-6.57136e-05
7.51212e-07
-6.61117e-05
3.98135e-07
-6.65057e-05
3.93943e-07
-6.71836e-05
6.77942e-07
-6.83152e-05
1.13155e-06
-6.9675e-05
1.35977e-06
-7.08117e-05
1.13667e-06
-7.16133e-05
8.01592e-07
-7.20472e-05
4.33854e-07
-7.23069e-05
2.59697e-07
-7.25339e-05
2.26977e-07
-7.26783e-05
1.44404e-07
-7.26198e-05
-5.8483e-08
-7.24708e-05
-1.49038e-07
-7.24551e-05
-1.57247e-08
-7.28856e-05
4.30432e-07
-7.36109e-05
7.25314e-07
-7.43645e-05
7.53576e-07
-7.48296e-05
4.65101e-07
-7.49693e-05
1.39656e-07
-7.50456e-05
7.62604e-08
-7.52685e-05
2.22905e-07
-7.56191e-05
3.50574e-07
-7.5799e-05
1.79964e-07
-7.53933e-05
-4.05763e-07
-7.42059e-05
-1.18744e-06
-7.2535e-05
-1.67085e-06
-7.05888e-05
-1.9462e-06
-6.83145e-05
-2.2744e-06
-6.57038e-05
-2.61064e-06
-6.26055e-05
-3.09836e-06
-5.86229e-05
-3.98258e-06
-5.35862e-05
-5.03672e-06
-4.74844e-05
-6.10178e-06
-4.06708e-05
-6.81362e-06
-3.27318e-05
-7.939e-06
-2.62816e-05
-6.45021e-06
-2.30538e-05
-3.22789e-06
-2.2411e-05
-6.428e-07
-2.42197e-05
1.80876e-06
-2.59619e-05
1.74217e-06
-2.79224e-05
1.96053e-06
-3.04761e-05
2.55365e-06
-3.15187e-05
1.04258e-06
-3.19031e-05
3.8441e-07
-3.22022e-05
2.99139e-07
-3.24893e-05
2.87082e-07
-3.2511e-05
2.16321e-08
-3.24468e-05
-6.41223e-08
-3.23697e-05
-7.71486e-08
-3.19058e-05
-4.63862e-07
-3.12182e-05
-6.87645e-07
-3.01229e-05
-1.09527e-06
-2.84668e-05
-1.65608e-06
-2.58979e-05
-2.56889e-06
-2.29452e-05
-2.95272e-06
-1.96551e-05
-3.29015e-06
-1.77083e-05
-1.94677e-06
-1.73155e-05
-3.9282e-07
-1.7318e-05
2.47681e-09
-1.78657e-05
5.47732e-07
-1.82711e-05
4.0537e-07
-1.89738e-05
7.02675e-07
-1.93765e-05
4.02731e-07
-1.94387e-05
6.21689e-08
-1.94828e-05
4.40849e-08
-1.95678e-05
8.50678e-08
-1.97182e-05
1.50349e-07
-1.98155e-05
9.72593e-08
-1.99135e-05
9.80734e-08
-1.98427e-05
-7.08035e-08
-1.95179e-05
-3.24848e-07
-1.87903e-05
-7.27572e-07
-1.77691e-05
-1.02121e-06
-1.62684e-05
-1.50075e-06
-1.52962e-05
-9.72145e-07
-1.5159e-05
-1.37198e-07
-1.52528e-05
9.38003e-08
-1.55349e-05
2.82041e-07
-1.57148e-05
1.79894e-07
-1.61355e-05
4.20705e-07
-1.64606e-05
3.25127e-07
-1.66148e-05
1.54154e-07
-1.67998e-05
1.85047e-07
-1.69608e-05
1.61008e-07
-1.71139e-05
1.53044e-07
-1.73039e-05
1.89958e-07
-1.74682e-05
1.6438e-07
-1.76021e-05
1.3383e-07
-1.77333e-05
1.31221e-07
-1.78431e-05
1.09785e-07
-1.79557e-05
1.12558e-07
-1.80649e-05
1.09254e-07
-1.81729e-05
1.07955e-07
-1.82772e-05
1.04286e-07
-1.83711e-05
9.39095e-08
-1.84629e-05
9.17415e-08
-1.85421e-05
7.92034e-08
-1.86145e-05
7.23878e-08
-1.86817e-05
6.71991e-08
-1.87437e-05
6.20481e-08
-1.87964e-05
5.26383e-08
-1.88394e-05
4.30388e-08
-1.8869e-05
2.95225e-08
-1.88852e-05
1.6203e-08
-1.8892e-05
6.81318e-09
-1.88928e-05
7.57445e-10
-1.88885e-05
-4.23685e-09
-1.88761e-05
-1.24224e-08
-1.88484e-05
-2.76947e-08
-1.88056e-05
-4.28403e-08
-1.87542e-05
-5.13907e-08
-1.86967e-05
-5.75708e-08
-1.86325e-05
-6.41789e-08
-1.8559e-05
-7.34737e-08
-1.84745e-05
-8.45658e-08
-1.83808e-05
-9.36599e-08
-1.82786e-05
-1.02237e-07
-1.81673e-05
-1.11297e-07
-1.80467e-05
-1.20608e-07
-1.79174e-05
-1.29353e-07
-1.7782e-05
-1.35381e-07
-1.76408e-05
-1.41169e-07
-1.7488e-05
-1.52777e-07
-1.73228e-05
-1.65274e-07
-1.71506e-05
-1.72227e-07
-1.69756e-05
-1.74945e-07
-1.67936e-05
-1.81966e-07
-1.6597e-05
-1.96654e-07
-1.63878e-05
-2.09205e-07
-1.61723e-05
-2.15479e-07
-1.59536e-05
-2.18697e-07
-1.57287e-05
-2.24873e-07
-1.54907e-05
-2.38011e-07
-1.52378e-05
-2.52918e-07
-1.49764e-05
-2.61443e-07
-1.47086e-05
-2.67765e-07
-1.44315e-05
-2.77139e-07
-1.41419e-05
-2.89589e-07
-1.38434e-05
-2.9845e-07
-1.35402e-05
-3.0321e-07
-1.32277e-05
-3.1256e-07
-1.29005e-05
-3.27204e-07
-1.25543e-05
-3.46171e-07
-1.2194e-05
-3.60321e-07
-1.1827e-05
-3.67025e-07
-1.14527e-05
-3.74282e-07
-1.10692e-05
-3.83544e-07
-1.06725e-05
-3.96699e-07
-1.02603e-05
-4.12168e-07
-9.83272e-06
-4.2758e-07
-9.39342e-06
-4.39309e-07
-8.94957e-06
-4.43845e-07
-8.49824e-06
-4.51331e-07
-8.03741e-06
-4.60837e-07
-7.56424e-06
-4.73172e-07
-7.0734e-06
-4.90842e-07
-6.5676e-06
-5.05793e-07
-6.05536e-06
-5.12245e-07
-5.547e-06
-5.08357e-07
-5.04112e-06
-5.0588e-07
-4.53062e-06
-5.10499e-07
-4.01117e-06
-5.19453e-07
-3.48295e-06
-5.28215e-07
-2.95579e-06
-5.27163e-07
-2.43795e-06
-5.17836e-07
-1.93147e-06
-5.06486e-07
-1.43087e-06
-5.00599e-07
-9.32286e-07
-4.9858e-07
-4.43499e-07
-4.88786e-07
2.45834e-08
-4.6808e-07
4.71384e-07
-4.46798e-07
9.10165e-07
-4.38778e-07
1.3443e-06
-4.34129e-07
1.76935e-06
-4.25051e-07
2.1815e-06
-4.12139e-07
2.57442e-06
-3.92916e-07
2.95055e-06
-3.76129e-07
3.31788e-06
-3.67322e-07
3.68147e-06
-3.63584e-07
4.04075e-06
-3.59281e-07
4.39186e-06
-3.51102e-07
4.73108e-06
-3.39219e-07
5.05556e-06
-3.24473e-07
5.37043e-06
-3.14866e-07
5.67906e-06
-3.08627e-07
5.98243e-06
-3.03359e-07
6.28144e-06
-2.9901e-07
6.57333e-06
-2.9189e-07
6.85434e-06
-2.81007e-07
7.1244e-06
-2.70062e-07
7.38836e-06
-2.63959e-07
7.64724e-06
-2.58882e-07
7.90037e-06
-2.5313e-07
8.14806e-06
-2.47696e-07
8.38899e-06
-2.40933e-07
8.62201e-06
-2.33029e-07
8.84799e-06
-2.25985e-07
9.06732e-06
-2.19331e-07
9.27897e-06
-2.11658e-07
9.4834e-06
-2.04429e-07
9.68208e-06
-1.98686e-07
9.87595e-06
-1.93866e-07
1.00649e-05
-1.88985e-07
1.02478e-05
-1.82827e-07
1.04218e-05
-1.74028e-07
1.05862e-05
-1.6441e-07
1.07461e-05
-1.59903e-07
1.09023e-05
-1.5621e-07
1.10524e-05
-1.50063e-07
1.11953e-05
-1.42998e-07
1.13304e-05
-1.35092e-07
1.14578e-05
-1.27355e-07
1.15791e-05
-1.21321e-07
1.16945e-05
-1.15415e-07
1.18036e-05
-1.09146e-07
1.19063e-05
-1.02688e-07
1.20016e-05
-9.52732e-08
1.20894e-05
-8.78974e-08
1.21706e-05
-8.11937e-08
1.22457e-05
-7.51414e-08
1.23152e-05
-6.94643e-08
1.23778e-05
-6.26586e-08
1.2432e-05
-5.42313e-08
1.24773e-05
-4.53286e-08
1.25156e-05
-3.83221e-08
1.2549e-05
-3.34172e-08
1.25768e-05
-2.77917e-08
1.25978e-05
-2.10207e-08
1.26118e-05
-1.39528e-08
1.26177e-05
-5.94618e-09
1.26152e-05
2.44952e-09
1.26062e-05
9.06173e-09
1.25911e-05
1.50957e-08
1.25696e-05
2.15239e-08
1.25415e-05
2.80246e-08
1.2507e-05
3.45797e-08
1.24663e-05
4.06523e-08
1.24193e-05
4.70028e-08
1.23643e-05
5.50737e-08
1.23015e-05
6.27991e-08
1.22335e-05
6.8061e-08
1.21605e-05
7.30241e-08
1.20816e-05
7.89211e-08
1.19966e-05
8.5009e-08
1.19057e-05
9.09044e-08
1.18083e-05
9.73975e-08
1.17044e-05
1.03941e-07
1.15952e-05
1.09249e-07
1.14815e-05
1.13805e-07
1.13629e-05
1.18669e-07
1.12395e-05
1.23463e-07
1.11109e-05
1.28652e-07
1.09762e-05
1.34724e-07
1.08369e-05
1.39388e-07
1.06935e-05
1.43396e-07
1.0546e-05
1.47513e-07
1.03952e-05
1.50922e-07
1.02402e-05
1.54968e-07
1.00803e-05
1.60006e-07
9.91694e-06
1.63395e-07
9.75082e-06
1.66169e-07
9.58201e-06
1.68865e-07
9.41002e-06
1.72041e-07
9.23504e-06
1.75033e-07
9.05776e-06
1.77333e-07
8.87898e-06
1.78823e-07
8.69914e-06
1.79889e-07
8.51721e-06
1.81971e-07
8.33262e-06
1.84628e-07
8.14646e-06
1.86194e-07
7.96044e-06
1.86056e-07
7.7748e-06
1.85679e-07
7.58838e-06
1.86462e-07
7.40084e-06
1.87582e-07
7.21332e-06
1.87558e-07
7.02602e-06
1.8735e-07
6.83908e-06
1.86989e-07
6.65195e-06
1.87173e-07
6.46378e-06
1.8822e-07
6.27557e-06
1.8826e-07
6.088e-06
1.87603e-07
5.90038e-06
1.87653e-07
5.71136e-06
1.89048e-07
5.52039e-06
1.91001e-07
5.32882e-06
1.91581e-07
5.13722e-06
1.91622e-07
4.9449e-06
1.92332e-07
4.75051e-06
1.944e-07
4.55282e-06
1.97698e-07
4.35324e-06
1.99588e-07
4.15349e-06
1.99765e-07
3.95421e-06
1.9929e-07
3.75504e-06
1.99178e-07
3.55553e-06
1.99526e-07
3.35555e-06
1.99989e-07
3.15514e-06
2.0043e-07
2.95552e-06
1.99631e-07
2.75764e-06
1.97891e-07
2.56152e-06
1.96134e-07
2.36715e-06
1.94379e-07
2.17382e-06
1.93341e-07
1.9818e-06
1.92029e-07
1.79277e-06
1.89036e-07
1.60746e-06
1.85321e-07
1.42575e-06
1.81707e-07
1.24699e-06
1.78761e-07
1.07084e-06
1.76132e-07
8.98106e-07
1.72722e-07
7.30091e-07
1.67993e-07
5.6689e-07
1.63176e-07
4.07369e-07
1.59494e-07
2.5181e-07
1.55534e-07
1.01172e-07
1.50617e-07
-4.45115e-08
1.45667e-07
-1.85428e-07
1.40907e-07
-3.21632e-07
1.36199e-07
-4.53045e-07
1.31414e-07
-5.79714e-07
1.26672e-07
-7.01695e-07
1.21987e-07
-8.19026e-07
1.17336e-07
-9.31999e-07
1.12979e-07
-1.04063e-06
1.0863e-07
-1.14476e-06
1.04139e-07
-1.24404e-06
9.92799e-08
-1.33853e-06
9.44879e-08
-1.42836e-06
8.98249e-08
-1.51387e-06
8.55164e-08
-1.59505e-06
8.11846e-08
-1.6716e-06
7.65488e-08
-1.74323e-06
7.16303e-08
-1.81007e-06
6.68536e-08
-1.87249e-06
6.24269e-08
-1.93052e-06
5.80357e-08
-1.98405e-06
5.3532e-08
-2.03316e-06
4.91166e-08
-2.07811e-06
4.49494e-08
-2.11895e-06
4.08442e-08
-2.15526e-06
3.63124e-08
-2.18689e-06
3.16214e-08
-2.21393e-06
2.70329e-08
-2.2368e-06
2.28651e-08
-2.2556e-06
1.8801e-08
-2.27045e-06
1.48382e-08
-2.28156e-06
1.10992e-08
-2.28857e-06
7.00204e-09
-2.29144e-06
2.86404e-09
-2.2905e-06
-9.49314e-10
-2.28631e-06
-4.18805e-09
-2.27864e-06
-7.6771e-09
-2.26726e-06
-1.1388e-08
-2.25229e-06
-1.49735e-08
-2.23421e-06
-1.80852e-08
-2.21289e-06
-2.13263e-08
-2.18866e-06
-2.423e-08
-2.16195e-06
-2.67087e-08
-2.13272e-06
-2.92345e-08
-2.1009e-06
-3.18258e-08
-2.06626e-06
-3.46377e-08
-2.02888e-06
-3.73886e-08
-1.98917e-06
-3.97073e-08
-1.94764e-06
-4.15319e-08
-1.90391e-06
-4.3735e-08
-1.85884e-06
-4.50651e-08
-1.81103e-06
-4.78186e-08
-1.76147e-06
-4.95586e-08
-1.70943e-06
-5.20352e-08
-1.65613e-06
-5.33044e-08
-1.60197e-06
-5.41652e-08
-1.54651e-06
-5.54628e-08
-1.49134e-06
-5.51651e-08
-1.43322e-06
-5.81257e-08
-1.37507e-06
-5.8152e-08
-1.31673e-06
-5.83413e-08
-1.25769e-06
-5.90489e-08
-1.20185e-06
-5.58413e-08
-1.14872e-06
-5.31278e-08
-1.08769e-06
-6.1031e-08
-1.02845e-06
-5.92438e-08
-9.68872e-07
-5.95834e-08
-9.03412e-07
-6.54624e-08
-8.67528e-07
-3.58855e-08
-8.40392e-07
-2.71391e-08
-7.76422e-07
-6.39725e-08
-7.32413e-07
-4.40104e-08
-6.45304e-07
-8.71114e-08
-5.31034e-07
-1.14272e-07
-3.0153e-07
-2.29506e-07
-8.63187e-09
-2.929e-07
2.00638e-07
-2.09272e-07
3.69198e-07
-1.68561e-07
4.93973e-07
-1.24777e-07
5.94456e-07
-1.00485e-07
6.79591e-07
-8.51366e-08
7.63681e-07
-8.40914e-08
8.4366e-07
-7.99808e-08
9.20614e-07
-7.6956e-08
9.89158e-07
-6.85458e-08
1.06371e-06
-7.45514e-08
1.09068e-06
-2.69703e-08
1.09717e-06
-6.49495e-09
1.14969e-06
-5.25232e-08
1.17972e-06
-3.0035e-08
1.26977e-06
-9.00499e-08
1.39983e-06
-1.30066e-07
1.70671e-06
-3.06881e-07
2.11527e-06
-4.08554e-07
2.41512e-06
-2.99853e-07
2.66657e-06
-2.51455e-07
2.83478e-06
-1.6821e-07
2.97977e-06
-1.44998e-07
3.09516e-06
-1.15389e-07
3.19496e-06
-9.97958e-08
3.27327e-06
-7.83131e-08
3.32649e-06
-5.3225e-08
3.37931e-06
-5.28207e-08
3.42859e-06
-4.9274e-08
3.46569e-06
-3.71011e-08
3.53241e-06
-6.67178e-08
3.55284e-06
-2.04345e-08
3.47441e-06
7.84332e-08
3.44513e-06
2.92758e-08
3.38738e-06
5.77568e-08
3.37994e-06
7.43323e-09
3.5904e-06
-2.10454e-07
4.02116e-06
-4.30757e-07
4.85666e-06
-8.35503e-07
5.89659e-06
-1.03993e-06
6.82605e-06
-9.29459e-07
7.56752e-06
-7.41469e-07
8.1143e-06
-5.46773e-07
8.52424e-06
-4.09945e-07
8.84623e-06
-3.21986e-07
9.11198e-06
-2.6575e-07
9.33367e-06
-2.21681e-07
9.52184e-06
-1.88171e-07
9.68506e-06
-1.63215e-07
9.83314e-06
-1.48077e-07
9.96624e-06
-1.33098e-07
1.00849e-05
-1.1864e-07
1.01953e-05
-1.10403e-07
1.02969e-05
-1.0158e-07
1.03895e-05
-9.26261e-08
1.04786e-05
-8.90951e-08
1.05612e-05
-8.25662e-08
1.06372e-05
-7.60617e-08
1.07084e-05
-7.11606e-08
1.07793e-05
-7.09464e-08
1.08461e-05
-6.67253e-08
1.09067e-05
-6.06368e-08
1.09632e-05
-5.65226e-08
1.10176e-05
-5.43539e-08
1.10703e-05
-5.26882e-08
1.11209e-05
-5.05779e-08
1.1169e-05
-4.81041e-08
1.12152e-05
-4.62378e-08
1.12589e-05
-4.36841e-08
1.13009e-05
-4.19851e-08
1.13382e-05
-3.7333e-08
1.13753e-05
-3.70775e-08
1.14142e-05
-3.89306e-08
1.14536e-05
-3.93817e-08
1.14922e-05
-3.8585e-08
1.15291e-05
-3.69139e-08
1.15642e-05
-3.50532e-08
1.15974e-05
-3.32564e-08
1.16293e-05
-3.19211e-08
1.16604e-05
-3.10476e-08
1.16904e-05
-2.99809e-08
1.17191e-05
-2.87494e-08
1.17461e-05
-2.69962e-08
1.17747e-05
-2.85429e-08
1.18014e-05
-2.67452e-08
1.18242e-05
-2.27707e-08
1.18448e-05
-2.06218e-08
1.18647e-05
-1.99072e-08
1.18843e-05
-1.9575e-08
1.19039e-05
-1.95902e-08
1.19235e-05
-1.95865e-08
1.19429e-05
-1.93877e-08
1.19618e-05
-1.89695e-08
1.19801e-05
-1.82545e-08
1.19974e-05
-1.7319e-08
1.20138e-05
-1.64166e-08
1.20297e-05
-1.58341e-08
1.20454e-05
-1.57394e-08
1.20611e-05
-1.57154e-08
1.20764e-05
-1.53166e-08
1.20908e-05
-1.43482e-08
1.21038e-05
-1.30265e-08
1.21161e-05
-1.23031e-08
1.21286e-05
-1.25018e-08
1.21415e-05
-1.29222e-08
1.2154e-05
-1.25063e-08
1.21651e-05
-1.10879e-08
1.21756e-05
-1.04544e-08
1.21862e-05
-1.0654e-08
1.21977e-05
-1.14518e-08
1.22067e-05
-8.97677e-09
1.2217e-05
-1.03433e-08
1.22303e-05
-1.33072e-08
1.22475e-05
-1.71488e-08
1.22629e-05
-1.54058e-08
1.22756e-05
-1.27299e-08
1.22869e-05
-1.12927e-08
1.22981e-05
-1.11503e-08
1.23097e-05
-1.16705e-08
-1.41698e-08
-1.97413e-05
2.19567e-06
-1.69114e-05
-5.60375e-06
-1.45284e-05
-6.58545e-06
-1.25922e-05
-7.17147e-06
-1.06531e-05
-6.58429e-06
-9.43575e-06
-5.66137e-06
-8.4574e-06
-4.40456e-06
-7.95758e-06
-3.48092e-06
-7.91399e-06
-3.02156e-06
-8.16229e-06
-2.93698e-06
-8.72434e-06
-2.83246e-06
-9.45255e-06
-2.3322e-06
-1.05868e-05
-9.55987e-07
-1.23811e-05
1.52926e-06
-1.54295e-05
5.00732e-06
-1.97844e-05
8.32795e-06
-2.44662e-05
1.0128e-05
-2.82158e-05
1.05593e-05
-2.98758e-05
1.07824e-05
-2.99262e-05
1.02958e-05
-3.08001e-05
7.62893e-06
-3.31381e-05
5.79289e-06
-3.57933e-05
5.41053e-06
-3.7959e-05
4.8645e-06
-3.98326e-05
3.76825e-06
-4.16555e-05
3.17686e-06
-4.33344e-05
3.31038e-06
-4.49636e-05
3.50081e-06
-4.67168e-05
3.79512e-06
-4.86524e-05
4.08657e-06
-5.06699e-05
4.00105e-06
-5.25682e-05
3.59474e-06
-5.41585e-05
3.27884e-06
-5.54782e-05
3.0861e-06
-5.6535e-05
2.53625e-06
-5.75171e-05
1.78048e-06
-5.8473e-05
1.44272e-06
-5.94808e-05
1.65263e-06
-6.05694e-05
2.21948e-06
-6.16558e-05
2.83963e-06
-6.27899e-05
3.01688e-06
-6.39939e-05
2.5939e-06
-6.49824e-05
1.73959e-06
-6.56895e-05
1.10526e-06
-6.63835e-05
1.08787e-06
-6.71751e-05
1.46955e-06
-6.80596e-05
2.01603e-06
-6.91095e-05
2.40959e-06
-7.02256e-05
2.2528e-06
-7.12536e-05
1.82952e-06
-7.20512e-05
1.23143e-06
-7.25392e-05
7.47696e-07
-7.28348e-05
5.22569e-07
-7.3063e-05
3.72586e-07
-7.32807e-05
1.59156e-07
-7.35384e-05
1.0858e-07
-7.38782e-05
3.24087e-07
-7.42491e-05
8.01309e-07
-7.45243e-05
1.00049e-06
-7.46428e-05
8.71988e-07
-7.45469e-05
3.69224e-07
-7.45172e-05
1.09939e-07
-7.46868e-05
2.45772e-07
-7.50632e-05
5.99363e-07
-7.54059e-05
6.93167e-07
-7.56325e-05
4.06602e-07
-7.55389e-05
-4.9944e-07
-7.50625e-05
-1.66386e-06
-7.42472e-05
-2.48609e-06
-7.31685e-05
-3.02495e-06
-7.20364e-05
-3.40656e-06
-7.11125e-05
-3.53448e-06
-7.02884e-05
-3.92255e-06
-6.9404e-05
-4.86699e-06
-6.81768e-05
-6.26389e-06
-6.62325e-05
-8.04614e-06
-6.30795e-05
-9.96659e-06
-5.9598e-05
-1.14206e-05
-5.45851e-05
-1.14631e-05
-4.80971e-05
-9.71587e-06
-3.96407e-05
-9.09918e-06
-3.13426e-05
-6.48939e-06
-2.68038e-05
-2.79662e-06
-2.55773e-05
7.34009e-07
-2.62397e-05
3.21606e-06
-2.75479e-05
2.35075e-06
-2.91999e-05
2.03648e-06
-3.13045e-05
2.40367e-06
-3.29312e-05
1.91381e-06
-3.31961e-05
2.86502e-07
-3.29676e-05
-2.92651e-07
-3.28912e-05
-1.53544e-07
-3.26763e-05
-6.78765e-07
-3.25151e-05
-8.48819e-07
-3.24059e-05
-1.20445e-06
-3.22104e-05
-1.8516e-06
-3.22467e-05
-2.53264e-06
-3.21995e-05
-2.99987e-06
-3.17325e-05
-3.75724e-06
-2.96325e-05
-4.04668e-06
-2.64624e-05
-3.56296e-06
-2.28616e-05
-3.59836e-06
-2.03555e-05
-1.95833e-06
-1.93439e-05
-6.06268e-07
-1.8613e-05
-2.8172e-08
-1.85466e-05
3.36334e-07
-1.8723e-05
2.38498e-07
-1.91406e-05
4.61697e-07
-1.98102e-05
7.5462e-07
-2.02143e-05
5.5453e-07
-2.01639e-05
4.682e-08
-2.01421e-05
7.63097e-08
-2.0146e-05
-6.69587e-08
-2.01813e-05
-2.89595e-07
-2.03489e-05
-5.59966e-07
-2.04461e-05
-9.24014e-07
-2.05833e-05
-1.36352e-06
-2.01749e-05
-1.38058e-06
-1.91483e-05
-1.1638e-06
-1.76566e-05
-1.39792e-06
-1.65656e-05
-8.08911e-07
-1.62585e-05
-1.27266e-07
-1.60955e-05
2.5767e-07
-1.61973e-05
4.26995e-07
-1.6378e-05
3.34839e-07
-1.67923e-05
5.99296e-07
-1.70999e-05
4.68642e-07
-1.72111e-05
2.6424e-07
-1.73275e-05
3.06286e-07
-1.74467e-05
2.83543e-07
-1.75787e-05
2.65898e-07
-1.77463e-05
2.98783e-07
-1.78825e-05
2.45919e-07
-1.79877e-05
2.17776e-07
-1.80854e-05
2.06929e-07
-1.81758e-05
1.98335e-07
-1.82744e-05
2.02908e-07
-1.83701e-05
1.89574e-07
-1.84689e-05
1.90505e-07
-1.85551e-05
1.65357e-07
-1.86297e-05
1.4701e-07
-1.8697e-05
1.34471e-07
-1.87556e-05
1.20634e-07
-1.88067e-05
1.03685e-07
-1.88488e-05
8.51558e-08
-1.88782e-05
5.89159e-08
-1.88959e-05
3.38732e-08
-1.89067e-05
1.76298e-08
-1.89111e-05
5.05957e-09
-1.89052e-05
-1.0125e-08
-1.88867e-05
-3.0968e-08
-1.88552e-05
-5.91496e-08
-1.88136e-05
-8.44931e-08
-1.87656e-05
-9.93945e-08
-1.87112e-05
-1.11978e-07
-1.86474e-05
-1.28e-07
-1.85706e-05
-1.50347e-07
-1.84817e-05
-1.73415e-07
-1.83853e-05
-1.90065e-07
-1.82836e-05
-2.04001e-07
-1.81744e-05
-2.2051e-07
-1.80553e-05
-2.39713e-07
-1.79267e-05
-2.57928e-07
-1.77909e-05
-2.7117e-07
-1.76471e-05
-2.84978e-07
-1.74927e-05
-3.0718e-07
-1.73276e-05
-3.30397e-07
-1.71562e-05
-3.43613e-07
-1.69798e-05
-3.51374e-07
-1.67946e-05
-3.67119e-07
-1.65979e-05
-3.93439e-07
-1.63898e-05
-4.17266e-07
-1.61748e-05
-4.30527e-07
-1.59539e-05
-4.39517e-07
-1.57241e-05
-4.547e-07
-1.54844e-05
-4.7774e-07
-1.52341e-05
-5.03235e-07
-1.49737e-05
-5.21879e-07
-1.47036e-05
-5.37805e-07
-1.4422e-05
-5.58741e-07
-1.41298e-05
-5.81784e-07
-1.38318e-05
-5.96462e-07
-1.35264e-05
-6.08637e-07
-1.32101e-05
-6.28906e-07
-1.28816e-05
-6.55706e-07
-1.25373e-05
-6.90498e-07
-1.21786e-05
-7.18965e-07
-1.18085e-05
-7.37123e-07
-1.1428e-05
-7.54778e-07
-1.10413e-05
-7.70327e-07
-1.06475e-05
-7.90474e-07
-1.02416e-05
-8.18077e-07
-9.82079e-06
-8.48385e-07
-9.38354e-06
-8.76563e-07
-8.93274e-06
-8.94641e-07
-8.47387e-06
-9.10207e-07
-8.01067e-06
-9.24046e-07
-7.54053e-06
-9.43314e-07
-7.05756e-06
-9.73814e-07
-6.56049e-06
-1.00287e-06
-6.05696e-06
-1.01578e-06
-5.55278e-06
-1.01254e-06
-5.04469e-06
-1.01397e-06
-4.53031e-06
-1.02489e-06
-4.01117e-06
-1.03858e-06
-3.49282e-06
-1.04657e-06
-2.97865e-06
-1.04133e-06
-2.46969e-06
-1.0268e-06
-1.96444e-06
-1.01173e-06
-1.4633e-06
-1.00173e-06
-9.69418e-07
-9.92464e-07
-4.88105e-07
-9.70096e-07
-2.33201e-08
-9.32862e-07
4.30013e-07
-9.00127e-07
8.74738e-07
-8.83498e-07
1.31004e-06
-8.69425e-07
1.73367e-06
-8.48674e-07
2.14525e-06
-8.23715e-07
2.54322e-06
-7.90875e-07
2.92706e-06
-7.59961e-07
3.29954e-06
-7.39792e-07
3.66427e-06
-7.28302e-07
4.02236e-06
-7.17359e-07
4.37165e-06
-7.00389e-07
4.71164e-06
-6.79195e-07
5.04136e-06
-6.54192e-07
5.36086e-06
-6.34358e-07
5.67151e-06
-6.19267e-07
5.9753e-06
-6.07146e-07
6.27284e-06
-5.96547e-07
6.56332e-06
-5.82375e-07
6.8457e-06
-5.63384e-07
7.11897e-06
-5.43335e-07
7.38467e-06
-5.29657e-07
7.64469e-06
-5.18911e-07
7.89937e-06
-5.07808e-07
8.14789e-06
-4.96219e-07
8.38937e-06
-4.82419e-07
8.62278e-06
-4.66447e-07
8.84792e-06
-4.51122e-07
9.06605e-06
-4.37467e-07
9.27832e-06
-4.23926e-07
9.48533e-06
-4.11437e-07
9.68677e-06
-4.00131e-07
9.88151e-06
-3.88606e-07
1.00694e-05
-3.76886e-07
1.02505e-05
-3.63916e-07
1.04245e-05
-3.4805e-07
1.05917e-05
-3.31609e-07
1.07532e-05
-3.21382e-07
1.09093e-05
-3.12276e-07
1.10587e-05
-2.99541e-07
1.12006e-05
-2.84843e-07
1.13354e-05
-2.69903e-07
1.14642e-05
-2.56235e-07
1.15874e-05
-2.4448e-07
1.1704e-05
-2.3209e-07
1.18135e-05
-2.18671e-07
1.19152e-05
-2.04371e-07
1.20091e-05
-1.89164e-07
1.20971e-05
-1.75925e-07
1.21797e-05
-1.63835e-07
1.22557e-05
-1.51255e-07
1.23249e-05
-1.38644e-07
1.23867e-05
-1.24522e-07
1.24405e-05
-1.08043e-07
1.24867e-05
-9.15685e-08
1.25263e-05
-7.79486e-08
1.256e-05
-6.70931e-08
1.25873e-05
-5.51335e-08
1.26075e-05
-4.12443e-08
1.26203e-05
-2.67481e-08
1.26259e-05
-1.15841e-08
1.26248e-05
3.60079e-09
1.26166e-05
1.72008e-08
1.26014e-05
3.0366e-08
1.25792e-05
4.37009e-08
1.25506e-05
5.66409e-08
1.25157e-05
6.95109e-08
1.24746e-05
8.17463e-08
1.24269e-05
9.47623e-08
1.23716e-05
1.10371e-07
1.23095e-05
1.24982e-07
1.22417e-05
1.35918e-07
1.21682e-05
1.46494e-07
1.20886e-05
1.58656e-07
1.20024e-05
1.71195e-07
1.19105e-05
1.82961e-07
1.18128e-05
1.9508e-07
1.17095e-05
2.07391e-07
1.16006e-05
2.18152e-07
1.14865e-05
2.28055e-07
1.13667e-05
2.38542e-07
1.12418e-05
2.48434e-07
1.11123e-05
2.58213e-07
1.09783e-05
2.68869e-07
1.08397e-05
2.78059e-07
1.06958e-05
2.87343e-07
1.05469e-05
2.96527e-07
1.03944e-05
3.0347e-07
1.0239e-05
3.10413e-07
1.00802e-05
3.18896e-07
9.91713e-06
3.26578e-07
9.74949e-06
3.33887e-07
9.57953e-06
3.38914e-07
9.40792e-06
3.43728e-07
9.23358e-06
3.49455e-07
9.05588e-06
3.55105e-07
8.87595e-06
3.58822e-07
8.69486e-06
3.61042e-07
8.5126e-06
3.6429e-07
8.32888e-06
3.6841e-07
8.14285e-06
3.72288e-07
7.95574e-06
3.73226e-07
7.76886e-06
3.72614e-07
7.58206e-06
3.73336e-07
7.39498e-06
3.74728e-07
7.20711e-06
3.75502e-07
7.0183e-06
3.76225e-07
6.82944e-06
3.75917e-07
6.64108e-06
3.75608e-07
6.453e-06
3.76367e-07
6.26477e-06
3.76544e-07
6.07593e-06
3.765e-07
5.88596e-06
3.77666e-07
5.69521e-06
3.79838e-07
5.50405e-06
3.82195e-07
5.31234e-06
3.83317e-07
5.11974e-06
3.84241e-07
4.92558e-06
3.86505e-07
4.7299e-06
3.90095e-07
4.53293e-06
3.94677e-07
4.33473e-06
3.97807e-07
4.13583e-06
3.98675e-07
3.93648e-06
3.98648e-07
3.73667e-06
3.99004e-07
3.53689e-06
3.99329e-07
3.33761e-06
3.99283e-07
3.1388e-06
3.99271e-07
2.94034e-06
3.98115e-07
2.74254e-06
3.95712e-07
2.54625e-06
3.92454e-07
2.35167e-06
3.88984e-07
2.15862e-06
3.86406e-07
1.96818e-06
3.82478e-07
1.7807e-06
3.76524e-07
1.59589e-06
3.70123e-07
1.41402e-06
3.63568e-07
1.23536e-06
3.57398e-07
1.0603e-06
3.51159e-07
8.89072e-07
3.43914e-07
7.21743e-07
3.35282e-07
5.58472e-07
3.26408e-07
3.99529e-07
3.18401e-07
2.44951e-07
3.10082e-07
9.45443e-08
3.01001e-07
-5.15759e-08
2.91773e-07
-1.92883e-07
2.82207e-07
-3.29234e-07
2.72549e-07
-4.60838e-07
2.63022e-07
-5.87856e-07
2.53697e-07
-7.10318e-07
2.44455e-07
-8.28034e-07
2.35058e-07
-9.41082e-07
2.2603e-07
-1.04948e-06
2.17027e-07
-1.15328e-06
2.07949e-07
-1.2526e-06
1.98592e-07
-1.34734e-06
1.89231e-07
-1.43754e-06
1.80026e-07
-1.52319e-06
1.71174e-07
-1.60428e-06
1.62278e-07
-1.6808e-06
1.53077e-07
-1.75257e-06
1.43408e-07
-1.81961e-06
1.33903e-07
-1.88208e-06
1.24915e-07
-1.94016e-06
1.16119e-07
-1.99392e-06
1.07295e-07
-2.04314e-06
9.83432e-08
-2.08769e-06
8.95034e-08
-2.12779e-06
8.09354e-08
-2.1636e-06
7.21171e-08
-2.19518e-06
6.31936e-08
-2.2223e-06
5.41424e-08
-2.24526e-06
4.58118e-08
-2.26408e-06
3.76083e-08
-2.27887e-06
2.96195e-08
-2.28955e-06
2.17653e-08
-2.29616e-06
1.3591e-08
-2.29896e-06
5.65429e-09
-2.29811e-06
-1.80984e-09
-2.29343e-06
-8.88412e-09
-2.28496e-06
-1.61541e-08
-2.27314e-06
-2.32137e-08
-2.25824e-06
-2.98795e-08
-2.24023e-06
-3.61045e-08
-2.21889e-06
-4.26703e-08
-2.19447e-06
-4.86545e-08
-2.16704e-06
-5.41439e-08
-2.13694e-06
-5.93437e-08
-2.10475e-06
-6.40189e-08
-2.06992e-06
-6.94678e-08
-2.03272e-06
-7.45959e-08
-1.99316e-06
-7.92678e-08
-1.95142e-06
-8.32773e-08
-1.90716e-06
-8.79961e-08
-1.86161e-06
-9.06203e-08
-1.81389e-06
-9.55338e-08
-1.76531e-06
-9.81477e-08
-1.71478e-06
-1.0256e-07
-1.66115e-06
-1.06941e-07
-1.6063e-06
-1.09022e-07
-1.54828e-06
-1.13487e-07
-1.49125e-06
-1.122e-07
-1.43254e-06
-1.16834e-07
-1.37804e-06
-1.12656e-07
-1.32467e-06
-1.11713e-07
-1.26328e-06
-1.20453e-07
-1.19974e-06
-1.19383e-07
-1.13325e-06
-1.19617e-07
-1.06685e-06
-1.27439e-07
-1.03249e-06
-9.36038e-08
-1.00816e-06
-8.3918e-08
-9.46031e-07
-1.27597e-07
-8.71128e-07
-1.10791e-07
-7.43197e-07
-1.55074e-07
-6.04768e-07
-2.02405e-07
-3.64806e-07
-2.83976e-07
-8.39506e-08
-3.6797e-07
1.20552e-07
-3.18778e-07
2.46817e-07
-3.55775e-07
3.00919e-07
-3.47005e-07
3.76128e-07
-2.84483e-07
4.46991e-07
-2.39428e-07
5.37723e-07
-2.15511e-07
6.23858e-07
-1.86623e-07
7.20867e-07
-1.82149e-07
8.1213e-07
-1.75358e-07
8.97472e-07
-1.65325e-07
9.35307e-07
-1.14795e-07
9.4557e-07
-7.88118e-08
1.00782e-06
-1.36802e-07
1.08751e-06
-1.0667e-07
1.25134e-06
-1.70325e-07
1.43101e-06
-2.32193e-07
1.76542e-06
-3.64452e-07
2.16638e-06
-4.91018e-07
2.47356e-06
-4.37246e-07
2.65625e-06
-4.89569e-07
2.722e-06
-4.74306e-07
2.81144e-06
-3.89301e-07
2.90094e-06
-3.40958e-07
2.99114e-06
-2.58404e-07
3.06163e-06
-2.15497e-07
3.13408e-06
-1.87839e-07
3.20732e-06
-1.73038e-07
3.2878e-06
-1.58793e-07
3.36823e-06
-1.33652e-07
3.47579e-06
-1.60379e-07
3.52378e-06
-9.72685e-08
3.46105e-06
2.56318e-08
3.42231e-06
-2.79767e-08
3.39863e-06
3.2435e-09
3.50518e-06
-2.81209e-08
3.82688e-06
-2.92415e-07
4.46647e-06
-5.8184e-07
5.44982e-06
-9.75914e-07
6.41755e-06
-1.17818e-06
7.22917e-06
-1.24238e-06
7.75979e-06
-1.36612e-06
8.01887e-06
-1.29901e-06
8.24422e-06
-1.1548e-06
8.46344e-06
-9.60691e-07
8.68925e-06
-7.72579e-07
8.90545e-06
-6.26144e-07
9.10606e-06
-5.22583e-07
9.29091e-06
-4.506e-07
9.4614e-06
-3.92166e-07
9.61704e-06
-3.43809e-07
9.76132e-06
-3.07489e-07
9.89516e-06
-2.81909e-07
1.0018e-05
-2.55911e-07
1.0131e-05
-2.31682e-07
1.02364e-05
-2.15801e-07
1.03348e-05
-1.99958e-07
1.04266e-05
-1.84461e-07
1.05134e-05
-1.75822e-07
1.05951e-05
-1.6427e-07
1.06723e-05
-1.53231e-07
1.07453e-05
-1.4417e-07
1.08149e-05
-1.40606e-07
1.08808e-05
-1.32625e-07
1.0943e-05
-1.22784e-07
1.10018e-05
-1.15329e-07
1.10579e-05
-1.1043e-07
1.11111e-05
-1.05893e-07
1.11618e-05
-1.01291e-07
1.12104e-05
-9.66871e-08
1.12571e-05
-9.29786e-08
1.13011e-05
-8.75945e-08
1.13428e-05
-8.37744e-08
1.13831e-05
-7.76187e-08
1.14222e-05
-7.61026e-08
1.14601e-05
-7.68399e-08
1.14969e-05
-7.61605e-08
1.15324e-05
-7.40881e-08
1.15668e-05
-7.13571e-08
1.16003e-05
-6.85845e-08
1.16326e-05
-6.55492e-08
1.16639e-05
-6.31461e-08
1.1694e-05
-6.12233e-08
1.17231e-05
-5.90401e-08
1.17507e-05
-5.63485e-08
1.17773e-05
-5.35405e-08
1.18027e-05
-5.399e-08
1.18268e-05
-5.08847e-08
1.185e-05
-4.59109e-08
1.18723e-05
-4.29376e-08
1.18938e-05
-4.14184e-08
1.19146e-05
-4.03665e-08
1.19346e-05
-3.95996e-08
1.1954e-05
-3.89458e-08
1.19729e-05
-3.82577e-08
1.19913e-05
-3.7379e-08
1.20091e-05
-3.61053e-08
1.20263e-05
-3.44681e-08
1.20427e-05
-3.28431e-08
1.20586e-05
-3.17212e-08
1.2074e-05
-3.11871e-08
1.20891e-05
-3.07977e-08
1.21036e-05
-2.97439e-08
1.21169e-05
-2.76871e-08
1.21297e-05
-2.58069e-08
1.21425e-05
-2.51719e-08
1.21555e-05
-2.54413e-08
1.21679e-05
-2.53019e-08
1.21794e-05
-2.39966e-08
1.21904e-05
-2.21557e-08
1.22021e-05
-2.21396e-08
1.22139e-05
-2.24025e-08
1.22249e-05
-2.25179e-08
1.22353e-05
-1.93613e-08
1.22459e-05
-2.09259e-08
1.22575e-05
-2.48724e-08
1.22685e-05
-2.8148e-08
1.22788e-05
-2.56867e-08
1.22886e-05
-2.25495e-08
1.22983e-05
-2.0968e-08
1.23079e-05
-2.07493e-08
1.23172e-05
-2.10579e-08
-2.08204e-08
-1.35895e-05
-6.33549e-06
-1.24153e-05
-6.77814e-06
-1.16523e-05
-7.34863e-06
-1.15713e-05
-7.2525e-06
-1.16924e-05
-6.46328e-06
-1.211e-05
-5.24387e-06
-1.29958e-05
-3.51886e-06
-1.47602e-05
-1.71649e-06
-1.75442e-05
-2.37582e-07
-2.10378e-05
5.5657e-07
-2.47148e-05
8.44472e-07
-2.80111e-05
9.6408e-07
-3.05996e-05
1.63245e-06
-3.25214e-05
3.45106e-06
-3.38877e-05
6.37364e-06
-3.45221e-05
8.96229e-06
-3.45483e-05
1.01541e-05
-3.45785e-05
1.05895e-05
-3.44523e-05
1.06563e-05
-3.41349e-05
9.97832e-06
-3.48923e-05
8.38629e-06
-3.66022e-05
7.50282e-06
-3.84249e-05
7.23317e-06
-4.01158e-05
6.55534e-06
-4.2009e-05
5.66149e-06
-4.37992e-05
4.96699e-06
-4.5188e-05
4.69923e-06
-4.65125e-05
4.82526e-06
-4.7999e-05
5.28162e-06
-4.96129e-05
5.70045e-06
-5.13817e-05
5.76981e-06
-5.31215e-05
5.33452e-06
-5.45131e-05
4.67035e-06
-5.54472e-05
4.02026e-06
-5.62732e-05
3.36224e-06
-5.74581e-05
2.96529e-06
-5.88261e-05
2.81078e-06
-6.00645e-05
2.89097e-06
-6.10511e-05
3.20603e-06
-6.17672e-05
3.55575e-06
-6.24494e-05
3.69907e-06
-6.33057e-05
3.45013e-06
-6.43684e-05
2.80227e-06
-6.54379e-05
2.1748e-06
-6.64704e-05
2.12029e-06
-6.74441e-05
2.44326e-06
-6.82749e-05
2.84682e-06
-6.90468e-05
3.18145e-06
-6.99867e-05
3.19268e-06
-7.10166e-05
2.85943e-06
-7.20361e-05
2.25087e-06
-7.2869e-05
1.58064e-06
-7.35024e-05
1.15596e-06
-7.40396e-05
9.09729e-07
-7.45643e-05
6.83807e-07
-7.504e-05
5.84254e-07
-7.5458e-05
7.42118e-07
-7.56021e-05
9.45398e-07
-7.55344e-05
9.32704e-07
-7.51805e-05
5.18087e-07
-7.48049e-05
-6.37588e-09
-7.46127e-05
-8.22804e-08
-7.46913e-05
3.24286e-07
-7.49489e-05
8.56942e-07
-7.51755e-05
9.19774e-07
-7.53255e-05
5.56536e-07
-7.53923e-05
-4.32632e-07
-7.5407e-05
-1.64917e-06
-7.51262e-05
-2.76691e-06