/*--------------------------------*- C++ -*----------------------------------*\
| =========                 |                                                 |
| \\      /  F ield         | OpenFOAM: The Open Source CFD Toolbox           |
|  \\    /   O peration     | Version:  v2006                                 |
|   \\  /    A nd           | Website:  www.openfoam.com                      |
|    \\/     M anipulation  |                                                 |
\*---------------------------------------------------------------------------*/
FoamFile
{
    version     2.0;
    format      ascii;
    class       surfaceScalarField;
    location    "0.9";
    object      alphaPhi0.water;
}
// * * * * * * * * * * * * * * * * * * * * * * * * * * * * * * * * * * * * * //

dimensions      [0 3 -1 0 0 0 0];
oriented        oriented;


internalField   nonuniform List<scalar> 
65390
(
-1.45724e-05
7.90893e-09
-1.45762e-05
5.51593e-08
-1.45955e-05
6.20082e-08
-1.45999e-05
3.89803e-08
-1.46055e-05
3.45478e-08
-1.46113e-05
3.0068e-08
-1.46103e-05
1.85129e-08
-1.4602e-05
7.12145e-09
-1.45846e-05
-5.29779e-09
-1.45564e-05
-1.81531e-08
-1.45191e-05
-2.90038e-08
-1.44759e-05
-3.63596e-08
-1.44238e-05
-4.65042e-08
-1.43712e-05
-4.78037e-08
-1.43133e-05
-5.3506e-08
-1.42507e-05
-5.8704e-08
-1.41851e-05
-6.29584e-08
-1.41124e-05
-6.98544e-08
-1.40331e-05
-7.66535e-08
-1.39483e-05
-8.22386e-08
-1.38573e-05
-8.80261e-08
-1.37604e-05
-9.38226e-08
-1.36581e-05
-9.91925e-08
-1.3551e-05
-1.03977e-07
-1.34408e-05
-1.07179e-07
-1.33278e-05
-1.10074e-07
-1.32105e-05
-1.14484e-07
-1.30884e-05
-1.19291e-07
-1.29626e-05
-1.22992e-07
-1.28337e-05
-1.26098e-07
-1.27014e-05
-1.29439e-07
-1.2566e-05
-1.32504e-07
-1.24267e-05
-1.36323e-07
-1.22834e-05
-1.40256e-07
-1.21374e-05
-1.43016e-07
-1.19894e-05
-1.45159e-07
-1.18388e-05
-1.47963e-07
-1.16852e-05
-1.5116e-07
-1.15295e-05
-1.53421e-07
-1.13718e-05
-1.55569e-07
-1.12135e-05
-1.56154e-07
-1.10551e-05
-1.56415e-07
-1.08929e-05
-1.60217e-07
-1.07295e-05
-1.61571e-07
-1.05667e-05
-1.60905e-07
-1.04031e-05
-1.61851e-07
-1.02367e-05
-1.64807e-07
-1.00683e-05
-1.66837e-07
-9.89822e-06
-1.68849e-07
-9.72655e-06
-1.70605e-07
-9.55375e-06
-1.71812e-07
-9.37823e-06
-1.74605e-07
-9.20026e-06
-1.77171e-07
-9.02081e-06
-1.78724e-07
-8.8402e-06
-1.79858e-07
-8.65919e-06
-1.80199e-07
-8.47825e-06
-1.80049e-07
-8.29713e-06
-1.80127e-07
-8.11634e-06
-1.79635e-07
-7.9363e-06
-1.78716e-07
-7.7565e-06
-1.78292e-07
-7.57674e-06
-1.78037e-07
-7.39688e-06
-1.7793e-07
-7.21654e-06
-1.78211e-07
-7.035e-06
-1.79212e-07
-6.85164e-06
-1.8082e-07
-6.66572e-06
-1.83207e-07
-6.47632e-06
-1.86513e-07
-6.28253e-06
-1.90759e-07
-6.08296e-06
-1.96398e-07
-5.87521e-06
-2.04458e-07
-5.65488e-06
-2.16913e-07
-5.41425e-06
-2.37107e-07
-5.14138e-06
-2.69219e-07
-4.81557e-06
-3.22034e-07
-4.40285e-06
-4.08921e-07
-3.83598e-06
-5.63024e-07
-2.99432e-06
-8.36427e-07
-2.32474e-06
-6.65902e-07
-2.07141e-06
-2.50746e-07
-1.94954e-06
-1.18947e-07
-1.96553e-06
1.92055e-08
-1.91381e-06
-4.95592e-08
-1.88797e-06
-2.35157e-08
-1.88602e-06
5.68403e-10
-1.82772e-06
-5.57419e-08
-1.77317e-06
-5.21078e-08
-1.72851e-06
-4.23417e-08
-1.69537e-06
-3.09893e-08
-1.65791e-06
-3.54746e-08
-1.62135e-06
-3.47802e-08
-1.58597e-06
-3.38393e-08
-1.54899e-06
-3.56264e-08
-1.51169e-06
-3.6103e-08
-1.47442e-06
-3.61842e-08
-1.4357e-06
-3.77035e-08
-1.39612e-06
-3.86043e-08
-1.35516e-06
-3.99658e-08
-1.3118e-06
-4.23307e-08
-1.26915e-06
-4.15696e-08
-1.22989e-06
-3.81332e-08
-1.19378e-06
-3.49117e-08
-1.15919e-06
-3.33354e-08
-1.12407e-06
-3.3825e-08
-1.08923e-06
-3.34957e-08
-1.05507e-06
-3.27905e-08
-1.02132e-06
-3.23648e-08
-9.88029e-07
-3.19083e-08
-9.55381e-07
-3.12702e-08
-9.23355e-07
-3.06656e-08
-8.91938e-07
-3.00778e-08
-8.61122e-07
-2.95058e-08
-8.31068e-07
-2.87751e-08
-8.0167e-07
-2.81517e-08
-7.73463e-07
-2.69957e-08
-7.45542e-07
-2.67433e-08
-7.19696e-07
-2.47033e-08
-6.94425e-07
-2.41627e-08
-6.68686e-07
-2.46688e-08
-6.43483e-07
-2.41638e-08
-6.18336e-07
-2.414e-08
-5.9388e-07
-2.34824e-08
-5.68641e-07
-2.42942e-08
-5.43968e-07
-2.37586e-08
-5.20627e-07
-2.24525e-08
-4.97595e-07
-2.21707e-08
-4.75114e-07
-2.16439e-08
-4.53188e-07
-2.11121e-08
-4.31623e-07
-2.07739e-08
-4.10563e-07
-2.02904e-08
-3.90071e-07
-1.97438e-08
-3.70068e-07
-1.9274e-08
-3.50608e-07
-1.87517e-08
-3.31693e-07
-1.82259e-08
-3.1329e-07
-1.77327e-08
-2.95393e-07
-1.72448e-08
-2.78016e-07
-1.67443e-08
-2.61175e-07
-1.6226e-08
-2.44845e-07
-1.57324e-08
-2.29003e-07
-1.52619e-08
-2.13634e-07
-1.48056e-08
-1.98741e-07
-1.4345e-08
-1.84324e-07
-1.38862e-08
-1.70358e-07
-1.34501e-08
-1.56827e-07
-1.30307e-08
-1.43736e-07
-1.26064e-08
-1.31072e-07
-1.21934e-08
-1.18807e-07
-1.1809e-08
-1.06926e-07
-1.14397e-08
-9.54277e-08
-1.10712e-08
-8.43066e-08
-1.07078e-08
-7.35443e-08
-1.03625e-08
-6.31382e-08
-1.00195e-08
-5.30889e-08
-9.67554e-09
-4.33859e-08
-9.34148e-09
-3.40156e-08
-9.02083e-09
-2.49747e-08
-8.70289e-09
-1.62568e-08
-8.39108e-09
-7.85166e-09
-8.08912e-09
2.41585e-10
-7.78775e-09
8.02043e-09
-7.48357e-09
1.55001e-08
-7.19446e-09
2.27e-08
-6.92443e-09
2.96218e-08
-6.65599e-09
3.62597e-08
-6.38141e-09
4.26199e-08
-6.1129e-09
4.87216e-08
-5.86343e-09
5.45741e-08
-5.62305e-09
6.01728e-08
-5.37779e-09
6.55168e-08
-5.13149e-09
7.06247e-08
-4.9037e-09
7.55134e-08
-4.69263e-09
8.01782e-08
-4.47652e-09
8.46154e-08
-4.25684e-09
8.88401e-08
-4.05192e-09
9.28647e-08
-3.85938e-09
9.66863e-08
-3.66382e-09
1.00305e-07
-3.46784e-09
1.03732e-07
-3.28414e-09
1.06976e-07
-3.10855e-09
1.10036e-07
-2.93148e-09
1.12915e-07
-2.75745e-09
1.15626e-07
-2.59638e-09
1.18178e-07
-2.44472e-09
1.2057e-07
-2.29137e-09
1.22801e-07
-2.13724e-09
1.24878e-07
-1.98983e-09
1.26807e-07
-1.84897e-09
1.28589e-07
-1.709e-09
1.30226e-07
-1.56977e-09
1.31723e-07
-1.43644e-09
1.3309e-07
-1.31196e-09
1.34331e-07
-1.19282e-09
1.35449e-07
-1.07397e-09
1.36443e-07
-9.54785e-10
1.37316e-07
-8.38813e-10
1.38074e-07
-7.27052e-10
1.38719e-07
-6.17609e-10
1.39255e-07
-5.11033e-10
1.39686e-07
-4.08429e-10
1.40016e-07
-3.09051e-10
1.40248e-07
-2.12724e-10
1.40386e-07
-1.20731e-10
1.40434e-07
-3.28315e-11
1.40395e-07
5.12825e-11
1.40276e-07
1.29683e-10
1.40082e-07
2.01793e-10
1.39816e-07
2.69988e-10
1.39483e-07
3.34044e-10
1.39089e-07
3.91528e-10
1.38637e-07
4.46067e-10
1.38122e-07
5.05377e-10
1.3754e-07
5.69368e-10
1.36894e-07
6.30517e-10
1.36189e-07
6.87363e-10
1.35424e-07
7.45295e-10
1.34598e-07
8.03689e-10
1.3372e-07
8.54904e-10
1.32798e-07
8.97369e-10
1.31833e-07
9.38615e-10
1.30824e-07
9.82138e-10
1.29774e-07
1.02272e-09
1.28688e-07
1.0578e-09
1.27567e-07
1.09268e-09
1.26407e-07
1.13057e-09
1.2521e-07
1.16608e-09
1.23986e-07
1.19354e-09
1.2274e-07
1.21513e-09
1.21473e-07
1.23544e-09
1.20187e-07
1.25453e-09
1.18883e-07
1.27064e-09
1.17566e-07
1.28481e-09
1.16234e-07
1.29876e-09
1.14888e-07
1.31193e-09
1.1353e-07
1.32394e-09
1.12159e-07
1.33655e-09
1.10773e-07
1.35044e-09
1.09376e-07
1.36256e-09
1.07971e-07
1.36925e-09
1.06565e-07
1.37073e-09
1.0516e-07
1.37026e-09
1.03755e-07
1.3704e-09
1.0235e-07
1.372e-09
1.00941e-07
1.3753e-09
9.9529e-08
1.37984e-09
9.81141e-08
1.38333e-09
9.66999e-08
1.38337e-09
9.52886e-08
1.38115e-09
9.38781e-08
1.38075e-09
9.24652e-08
1.38351e-09
9.10513e-08
1.38463e-09
8.96437e-08
1.37827e-09
8.8249e-08
1.36523e-09
8.68665e-08
1.35265e-09
8.54911e-08
1.34507e-09
8.41223e-08
1.33819e-09
8.2767e-08
1.3243e-09
8.14333e-08
1.30253e-09
8.01216e-08
1.28035e-09
7.88252e-08
1.26505e-09
7.75372e-08
1.25693e-09
7.62548e-08
1.25178e-09
7.49775e-08
1.24715e-09
7.3705e-08
1.24311e-09
7.24377e-08
1.23874e-09
7.1178e-08
1.23205e-09
6.99282e-08
1.223e-09
6.86895e-08
1.21293e-09
6.74638e-08
1.20088e-09
6.62556e-08
1.18427e-09
6.50687e-08
1.16389e-09
6.39021e-08
1.14434e-09
6.27522e-08
1.1283e-09
6.16163e-08
1.11491e-09
6.0493e-08
1.10277e-09
5.93807e-08
1.09212e-09
5.82774e-08
1.08335e-09
5.71818e-08
1.07587e-09
5.60926e-08
1.06943e-09
5.50081e-08
1.06464e-09
5.39276e-08
1.06073e-09
5.28534e-08
1.0542e-09
5.17918e-08
1.04158e-09
5.07486e-08
1.02303e-09
4.97272e-08
1.00123e-09
4.87289e-08
9.7822e-10
4.77546e-08
9.54132e-10
4.68063e-08
9.28311e-10
4.58853e-08
9.01236e-10
4.49909e-08
8.74717e-10
4.41204e-08
8.51047e-10
4.32702e-08
8.31003e-10
4.24372e-08
8.14092e-10
4.16168e-08
8.0171e-10
4.08041e-08
7.94242e-10
3.99956e-08
7.9031e-10
3.91903e-08
7.87262e-10
3.83897e-08
7.82821e-10
3.75958e-08
7.76301e-10
3.681e-08
7.68288e-10
3.60335e-08
7.59242e-10
3.52679e-08
7.48531e-10
3.4516e-08
7.34907e-10
3.37817e-08
7.17473e-10
3.3069e-08
6.9618e-10
3.23801e-08
6.72391e-10
3.17159e-08
6.48046e-10
3.1075e-08
6.24835e-10
3.04553e-08
6.03855e-10
2.98539e-08
5.85754e-10
2.92676e-08
5.70873e-10
2.86934e-08
5.59004e-10
2.81286e-08
5.49743e-10
2.75716e-08
5.42152e-10
2.7022e-08
5.35004e-10
2.64804e-08
5.27088e-10
2.59486e-08
5.17419e-10
2.54289e-08
5.0549e-10
2.49234e-08
4.9147e-10
2.44332e-08
4.76173e-10
2.39588e-08
4.60483e-10
2.35003e-08
4.44676e-10
2.3058e-08
4.28518e-10
2.26321e-08
4.12238e-10
2.22207e-08
3.97685e-10
2.1819e-08
3.88157e-10
2.14196e-08
3.85752e-10
2.10178e-08
3.88201e-10
2.06139e-08
3.90348e-10
2.02123e-08
3.88134e-10
1.98169e-08
3.81888e-10
1.94294e-08
3.74021e-10
1.90516e-08
3.64442e-10
1.86882e-08
3.49929e-10
1.83458e-08
3.29063e-10
1.80262e-08
3.06322e-10
1.77236e-08
2.89466e-10
1.74292e-08
2.81229e-10
1.71388e-08
2.77249e-10
1.68518e-08
2.73961e-10
1.65661e-08
2.72816e-10
1.62766e-08
2.76592e-10
1.59802e-08
2.83583e-10
1.56794e-08
2.88156e-10
1.53796e-08
2.87192e-10
1.50847e-08
2.8246e-10
1.47964e-08
2.76029e-10
1.4517e-08
2.6718e-10
1.42492e-08
2.55857e-10
1.39921e-08
2.45207e-10
1.37422e-08
2.38248e-10
1.34957e-08
2.35078e-10
1.32493e-08
2.35206e-10
1.29991e-08
2.3928e-10
1.27422e-08
2.46267e-10
1.248e-08
2.51894e-10
1.22177e-08
2.52407e-10
1.19599e-08
2.48161e-10
1.17093e-08
2.41385e-10
1.14677e-08
2.32738e-10
1.1237e-08
2.2218e-10
1.10168e-08
2.12035e-10
1.08028e-08
2.06223e-10
1.05885e-08
2.06676e-10
1.03696e-08
2.11582e-10
1.01448e-08
2.17578e-10
9.91547e-09
2.2234e-10
9.68389e-09
2.24714e-10
9.45369e-09
2.23445e-10
9.22964e-09
2.17386e-10
9.01597e-09
2.07092e-10
8.81397e-09
1.95487e-10
8.62141e-09
1.86118e-10
8.43433e-09
1.80713e-10
8.24977e-09
1.78271e-10
8.06691e-09
1.76659e-10
7.88572e-09
1.75076e-10
7.70582e-09
1.73874e-10
7.52816e-09
1.71743e-10
7.35679e-09
1.65535e-10
7.19674e-09
1.54308e-10
7.0498e-09
1.41274e-10
6.91262e-09
1.31592e-10
6.77896e-09
1.28127e-10
6.6427e-09
1.3077e-10
6.50002e-09
1.3722e-10
6.35125e-09
1.43333e-10
6.20059e-09
1.45241e-10
6.05326e-09
1.41909e-10
5.91302e-09
1.34809e-10
5.78118e-09
1.26422e-10
5.65572e-09
1.20051e-10
5.53149e-09
1.1883e-10
5.40272e-09
1.23389e-10
5.26558e-09
1.31816e-10
5.11904e-09
1.41256e-10
4.96556e-09
1.48281e-10
4.81123e-09
1.49211e-10
4.66394e-09
1.42283e-10
4.52864e-09
1.304e-10
4.40392e-09
1.19957e-10
4.28368e-09
1.1561e-10
4.16305e-09
1.16142e-10
4.04161e-09
1.17093e-10
3.91933e-09
1.18089e-10
3.79696e-09
1.18327e-10
3.67958e-09
1.13485e-10
3.57072e-09
1.05106e-10
3.46749e-09
9.96121e-11
3.36434e-09
9.96813e-11
3.25751e-09
1.03488e-10
3.1474e-09
1.06897e-10
3.03906e-09
1.05256e-10
2.93739e-09
9.87027e-11
2.8424e-09
9.21507e-11
2.75234e-09
8.73237e-11
2.66627e-09
8.34467e-11
2.58066e-09
8.30991e-11
2.49468e-09
8.35642e-11
2.41127e-09
8.10962e-11
2.33268e-09
7.63666e-11
2.24889e-09
8.16581e-11
2.15714e-09
8.96864e-11
2.06149e-09
9.36748e-11
1.96431e-09
9.52642e-11
1.87857e-09
8.38899e-11
1.80204e-09
7.47439e-11
1.73207e-09
6.82307e-11
1.67074e-09
5.96285e-11
1.61491e-09
5.41847e-11
1.56846e-09
4.48287e-11
1.52964e-09
3.72296e-11
1.51027e-09
1.78131e-11
1.49536e-09
1.3375e-11
1.47934e-09
1.45031e-11
1.44997e-09
2.78769e-11
1.41422e-09
3.42653e-11
1.38585e-09
2.6905e-11
1.3563e-09
2.80812e-11
1.34981e-09
5.03141e-12
1.32885e-09
1.94908e-11
1.27767e-09
4.97179e-11
1.23051e-09
4.56974e-11
1.18704e-09
4.20084e-11
1.16433e-09
2.12514e-11
1.13263e-09
3.02489e-11
1.1052e-09
2.59837e-11
1.10196e-09
1.80938e-12
1.112e-09
-1.14349e-11
1.14736e-09
-3.67129e-11
1.14973e-09
-3.6758e-12
1.17767e-09
-2.91646e-11
1.17344e-09
3.08408e-12
1.16267e-09
9.70941e-12
1.13142e-09
3.02888e-11
1.11964e-09
1.09212e-11
1.15038e-09
-3.15004e-11
1.13131e-09
1.84174e-11
1.1555e-09
-2.47728e-11
1.19904e-09
-4.4042e-11
1.19446e-09
4.11099e-12
1.18009e-09
1.39085e-11
1.1258e-09
5.3832e-11
1.13104e-09
-5.74538e-12
1.06635e-09
6.41251e-11
1.04332e-09
2.24318e-11
1.11634e-09
-7.36576e-11
1.12338e-09
-8.05177e-12
1.39345e-09
-2.71056e-10
1.56131e-09
-1.69208e-10
1.53694e-09
2.23757e-11
1.53765e-09
-2.60979e-12
1.47591e-09
5.98297e-11
1.39295e-09
8.10343e-11
1.30326e-09
8.77683e-11
1.18797e-09
1.13398e-10
1.03789e-09
1.48238e-10
8.66881e-10
1.6923e-10
6.8514e-10
1.8004e-10
4.95918e-10
1.87598e-10
3.13733e-10
1.80635e-10
1.58034e-10
1.54213e-10
3.24215e-11
1.24183e-10
-7.9978e-11
1.11013e-10
-1.97123e-10
1.15791e-10
-3.17285e-10
1.18831e-10
-4.26068e-10
1.07466e-10
-5.12584e-10
8.52069e-11
-5.78231e-10
6.43426e-11
-6.32517e-10
5.29818e-11
-6.88022e-10
5.42005e-11
-7.56216e-10
6.689e-11
-8.43734e-10
8.62143e-11
-9.50123e-10
1.05089e-10
-1.07088e-09
1.19462e-10
-1.19909e-09
1.26927e-10
-1.32707e-09
1.26702e-10
-1.44675e-09
1.18413e-10
-1.54843e-09
1.00426e-10
-1.62046e-09
7.07918e-11
-1.64961e-09
2.79274e-11
-1.62843e-09
-2.23787e-11
-1.5495e-09
-8.0123e-11
-1.41916e-09
-1.31503e-10
-1.24792e-09
-1.72394e-10
-1.05062e-09
-1.98436e-10
-8.41917e-10
-2.09816e-10
-6.3303e-10
-2.09985e-10
-4.31889e-10
-2.02223e-10
-2.45007e-10
-1.87947e-10
-8.05169e-11
-1.6554e-10
5.19176e-11
-1.33469e-10
1.43193e-10
-9.22957e-11
1.92141e-10
-4.99554e-11
2.07e-10
-1.5855e-11
2.06026e-10
-1.08524e-14
2.07524e-10
-2.47251e-12
2.27226e-10
-2.06674e-11
2.80564e-10
-5.42961e-11
3.7944e-10
-9.98282e-11
5.25e-10
-1.46505e-10
6.98964e-10
-1.74904e-10
8.58984e-10
-1.60956e-10
9.56662e-10
-9.86086e-11
9.78713e-10
-2.29756e-11
9.68743e-10
9.04995e-12
1.00379e-09
-3.59563e-11
1.13461e-09
-1.31734e-10
1.30081e-09
-1.6709e-10
1.36961e-09
-6.96873e-11
1.26483e-09
1.03901e-10
1.04593e-09
2.18033e-10
8.74337e-10
1.70745e-10
8.63971e-10
9.5286e-12
8.89187e-10
-2.60386e-11
7.85544e-10
1.02836e-10
5.53105e-10
2.31648e-10
3.91478e-10
1.60851e-10
4.56983e-10
-6.62672e-11
5.93284e-10
-1.37048e-10
5.96577e-10
-4.02528e-12
5.87736e-10
8.12173e-12
7.69928e-10
-1.829e-10
1.05771e-09
-2.88477e-10
1.11499e-09
-5.79804e-11
1.00431e-09
1.1e-10
9.5514e-10
4.84748e-11
7.53242e-10
2.01197e-10
5.57649e-10
1.94875e-10
3.435e-10
-1.45959e-05
-6.30174e-08
-1.46488e-05
4.17865e-08
-1.469e-05
4.78905e-08
-1.47096e-05
1.29824e-08
-1.47199e-05
6.07461e-09
-1.47194e-05
-1.84958e-09
-1.47081e-05
-1.75864e-08
-1.46875e-05
-3.28213e-08
-1.46603e-05
-4.71727e-08
-1.46272e-05
-6.2023e-08
-1.45886e-05
-7.53331e-08
-1.45442e-05
-8.62098e-08
-1.44947e-05
-9.89118e-08
-1.44395e-05
-1.04456e-07
-1.43798e-05
-1.13635e-07
-1.43157e-05
-1.2277e-07
-1.42462e-05
-1.32187e-07
-1.41712e-05
-1.44157e-07
-1.40902e-05
-1.56267e-07
-1.40028e-05
-1.67432e-07
-1.39096e-05
-1.78455e-07
-1.38112e-05
-1.89008e-07
-1.37078e-05
-1.98914e-07
-1.35965e-05
-2.08328e-07
-1.3484e-05
-2.1598e-07
-1.33676e-05
-2.23067e-07
-1.32478e-05
-2.31712e-07
-1.31227e-05
-2.4018e-07
-1.29952e-05
-2.46649e-07
-1.28647e-05
-2.52746e-07
-1.27303e-05
-2.60096e-07
-1.25949e-05
-2.64098e-07
-1.24564e-05
-2.71262e-07
-1.23118e-05
-2.81355e-07
-1.21649e-05
-2.86842e-07
-1.20159e-05
-2.91437e-07
-1.18639e-05
-2.97472e-07
-1.17119e-05
-3.01376e-07
-1.15572e-05
-3.07008e-07
-1.13952e-05
-3.14128e-07
-1.12325e-05
-3.1736e-07
-1.10679e-05
-3.19773e-07
-1.09001e-05
-3.25036e-07
-1.07337e-05
-3.28382e-07
-1.05646e-05
-3.29432e-07
-1.03947e-05
-3.31282e-07
-1.02218e-05
-3.34609e-07
-1.00516e-05
-3.37087e-07
-9.88163e-06
-3.39615e-07
-9.70995e-06
-3.42077e-07
-9.53686e-06
-3.44409e-07
-9.36315e-06
-3.48595e-07
-9.18839e-06
-3.52599e-07
-9.01245e-06
-3.55771e-07
-8.83482e-06
-3.58243e-07
-8.65548e-06
-3.594e-07
-8.47504e-06
-3.59901e-07
-8.29434e-06
-3.60087e-07
-8.11338e-06
-3.59e-07
-7.93285e-06
-3.57176e-07
-7.75243e-06
-3.5586e-07
-7.57309e-06
-3.54831e-07
-7.39382e-06
-3.54296e-07
-7.2141e-06
-3.54579e-07
-7.03332e-06
-3.56221e-07
-6.85083e-06
-3.59111e-07
-6.66607e-06
-3.63371e-07
-6.47853e-06
-3.69101e-07
-6.28772e-06
-3.76284e-07
-6.09305e-06
-3.85492e-07
-5.89373e-06
-3.97962e-07
-5.68888e-06
-4.15719e-07
-5.47839e-06
-4.41328e-07
-5.26293e-06
-4.7813e-07
-5.04916e-06
-5.28922e-07
-4.85336e-06
-5.97442e-07
-4.72533e-06
-6.83417e-07
-4.76544e-06
-7.89198e-07
-4.59218e-06
-8.33275e-07
-3.97899e-06
-8.57258e-07
-3.10447e-06
-9.84415e-07
-2.34607e-06
-7.33494e-07
-2.06212e-06
-3.28601e-07
-1.89992e-06
-1.80835e-07
-1.86454e-06
-2.97421e-08
-1.803e-06
-1.13026e-07
-1.74995e-06
-1.01501e-07
-1.7182e-06
-7.04979e-08
-1.70844e-06
-3.74602e-08
-1.6616e-06
-7.93389e-08
-1.61953e-06
-7.42067e-08
-1.58614e-06
-6.48962e-08
-1.54733e-06
-7.23554e-08
-1.50939e-06
-7.21331e-08
-1.47191e-06
-7.18664e-08
-1.43346e-06
-7.44067e-08
-1.39519e-06
-7.51116e-08
-1.35814e-06
-7.52026e-08
-1.32214e-06
-7.64375e-08
-1.28548e-06
-7.6243e-08
-1.246e-06
-7.55275e-08
-1.2032e-06
-7.55108e-08
-1.161e-06
-7.32669e-08
-1.12288e-06
-6.96181e-08
-1.08763e-06
-6.63678e-08
-1.05402e-06
-6.39969e-08
-1.0198e-06
-6.41662e-08
-9.86014e-07
-6.3296e-08
-9.52804e-07
-6.21009e-08
-9.20337e-07
-6.07924e-08
-8.88639e-07
-5.94802e-08
-8.57577e-07
-5.83232e-08
-8.27221e-07
-5.69427e-08
-7.97561e-07
-5.56808e-08
-7.68367e-07
-5.41178e-08
-7.40254e-07
-5.28432e-08
-7.12643e-07
-5.03619e-08
-6.86191e-07
-4.87229e-08
-6.60081e-07
-4.89419e-08
-6.35417e-07
-4.70458e-08
-6.11573e-07
-4.62602e-08
-5.8741e-07
-4.59746e-08
-5.64414e-07
-4.56695e-08
-5.41517e-07
-4.50835e-08
-5.18588e-07
-4.38558e-08
-4.94907e-07
-4.43689e-08
-4.71736e-07
-4.33736e-08
-4.49931e-07
-4.15142e-08
-4.2857e-07
-4.07702e-08
-4.07763e-07
-3.97695e-08
-3.87477e-07
-3.87375e-08
-3.67582e-07
-3.79101e-08
-3.48204e-07
-3.69054e-08
-3.29393e-07
-3.58459e-08
-3.11081e-07
-3.48862e-08
-2.93274e-07
-3.39256e-08
-2.75958e-07
-3.29651e-08
-2.59152e-07
-3.19674e-08
-2.42826e-07
-3.10236e-08
-2.26984e-07
-3.00989e-08
-2.11619e-07
-2.91946e-08
-1.96726e-07
-2.82898e-08
-1.82303e-07
-2.73886e-08
-1.68336e-07
-2.65239e-08
-1.54804e-07
-2.56948e-08
-1.41701e-07
-2.48686e-08
-1.29024e-07
-2.40545e-08
-1.16758e-07
-2.32842e-08
-1.04887e-07
-2.25448e-08
-9.3409e-08
-2.18078e-08
-8.23175e-08
-2.10813e-08
-7.15949e-08
-2.03904e-08
-6.12305e-08
-1.97112e-08
-5.12223e-08
-1.90328e-08
-4.15613e-08
-1.83727e-08
-3.22305e-08
-1.77424e-08
-2.3221e-08
-1.7123e-08
-1.45337e-08
-1.65082e-08
-6.16557e-09
-1.59059e-08
1.89175e-09
-1.5312e-08
9.64354e-09
-1.47202e-08
1.7093e-08
-1.41462e-08
2.42459e-08
-1.35968e-08
3.11147e-08
-1.30609e-08
3.77143e-08
-1.25337e-08
4.40517e-08
-1.20191e-08
5.01305e-08
-1.15267e-08
5.59548e-08
-1.10475e-08
6.15281e-08
-1.05663e-08
6.68518e-08
-1.00855e-08
7.19333e-08
-9.63006e-09
7.67823e-08
-9.20101e-09
8.14054e-08
-8.77314e-09
8.58091e-08
-8.34797e-09
9.00031e-08
-7.94717e-09
9.39961e-08
-7.56727e-09
9.77913e-08
-7.18731e-09
1.0139e-07
-6.8086e-09
1.048e-07
-6.44859e-09
1.08028e-07
-6.10436e-09
1.11077e-07
-5.76135e-09
1.1395e-07
-5.42328e-09
1.16652e-07
-5.10521e-09
1.19192e-07
-4.80374e-09
1.21573e-07
-4.50277e-09
1.23794e-07
-4.20078e-09
1.25859e-07
-3.9094e-09
1.27774e-07
-3.6303e-09
1.2954e-07
-3.35294e-09
1.31156e-07
-3.07373e-09
1.32624e-07
-2.80236e-09
1.33952e-07
-2.54757e-09
1.35149e-07
-2.3065e-09
1.3622e-07
-2.07045e-09
1.37171e-07
-1.83844e-09
1.38008e-07
-1.61565e-09
1.38734e-07
-1.39963e-09
1.39348e-07
-1.18344e-09
1.3985e-07
-9.6947e-10
1.40245e-07
-7.64604e-10
1.40539e-07
-5.6928e-10
1.40738e-07
-3.81688e-10
1.40847e-07
-2.03518e-10
1.4087e-07
-3.53334e-11
1.40813e-07
1.24204e-10
1.40679e-07
2.7417e-10
1.40471e-07
4.1489e-10
1.40189e-07
5.50885e-10
1.39833e-07
6.8292e-10
1.39405e-07
8.06315e-10
1.3891e-07
9.22969e-10
1.38348e-07
1.04218e-09
1.37723e-07
1.16476e-09
1.37038e-07
1.28079e-09
1.363e-07
1.38754e-09
1.3551e-07
1.49295e-09
1.3467e-07
1.59833e-09
1.33782e-07
1.69477e-09
1.32848e-07
1.77998e-09
1.31871e-07
1.86374e-09
1.30848e-07
1.95075e-09
1.29782e-07
2.03304e-09
1.28677e-07
2.10496e-09
1.27539e-07
2.17223e-09
1.26369e-07
2.23998e-09
1.25172e-07
2.30272e-09
1.23949e-07
2.35399e-09
1.22703e-07
2.39751e-09
1.21435e-07
2.44019e-09
1.20142e-07
2.48194e-09
1.18828e-07
2.51914e-09
1.17495e-07
2.55199e-09
1.16145e-07
2.58172e-09
1.14783e-07
2.60634e-09
1.13414e-07
2.62463e-09
1.12043e-07
2.64e-09
1.10669e-07
2.65603e-09
1.09292e-07
2.67122e-09
1.07911e-07
2.6824e-09
1.06524e-07
2.69023e-09
1.0513e-07
2.69791e-09
1.03728e-07
2.70662e-09
1.0232e-07
2.71582e-09
1.00905e-07
2.72629e-09
9.94836e-08
2.73895e-09
9.80551e-08
2.75065e-09
9.66232e-08
2.75509e-09
9.51948e-08
2.75015e-09
9.37758e-08
2.74107e-09
9.23671e-08
2.73378e-09
9.09668e-08
2.72662e-09
8.95741e-08
2.71254e-09
8.8191e-08
2.6896e-09
8.68193e-08
2.6653e-09
8.5457e-08
2.64779e-09
8.41005e-08
2.63487e-09
8.2748e-08
2.61661e-09
8.14019e-08
2.58845e-09
8.00651e-08
2.55719e-09
7.87386e-08
2.53195e-09
7.74228e-08
2.51372e-09
7.61196e-08
2.4969e-09
7.48311e-08
2.47879e-09
7.35571e-08
2.46148e-09
7.22962e-08
2.44553e-09
7.10481e-08
2.42766e-09
6.98137e-08
2.40637e-09
6.85936e-08
2.38368e-09
6.73868e-08
2.35978e-09
6.61927e-08
2.33192e-09
6.5011e-08
2.30047e-09
6.38409e-08
2.27046e-09
6.26815e-08
2.24473e-09
6.15328e-08
2.22147e-09
6.03952e-08
2.19886e-09
5.92683e-08
2.17797e-09
5.81516e-08
2.15943e-09
5.70457e-08
2.14123e-09
5.59529e-08
2.12177e-09
5.48749e-08
2.10222e-09
5.38117e-08
2.08346e-09
5.27628e-08
2.06256e-09
5.17287e-08
2.03511e-09
5.07108e-08
2.00029e-09
4.97105e-08
1.96112e-09
4.87278e-08
1.92049e-09
4.77633e-08
1.87854e-09
4.68176e-08
1.8341e-09
4.58916e-08
1.78771e-09
4.49851e-08
1.74213e-09
4.4097e-08
1.70044e-09
4.32259e-08
1.66384e-09
4.23703e-08
1.63191e-09
4.15293e-08
1.60546e-09
4.0702e-08
1.58473e-09
3.98873e-08
1.56853e-09
3.90845e-08
1.55413e-09
3.82929e-08
1.53879e-09
3.75128e-08
1.5212e-09
3.67448e-08
1.50148e-09
3.59897e-08
1.47989e-09
3.52484e-08
1.45576e-09
3.4522e-08
1.42768e-09
3.38114e-08
1.39471e-09
3.31175e-08
1.35716e-09
3.24405e-08
1.31684e-09
3.17802e-08
1.27616e-09
3.11361e-08
1.23725e-09
3.05071e-08
1.20152e-09
2.98923e-08
1.16966e-09
2.92909e-08
1.14182e-09
2.87022e-08
1.11756e-09
2.81261e-08
1.09614e-09
2.75624e-08
1.07645e-09
2.70112e-08
1.05721e-09
2.64725e-08
1.03707e-09
2.59468e-08
1.01477e-09
2.54347e-08
9.89374e-10
2.49374e-08
9.60866e-10
2.44553e-08
9.30552e-10
2.39876e-08
9.00689e-10
2.35318e-08
8.73152e-10
2.30848e-08
8.48287e-10
2.26449e-08
8.25098e-10
2.22123e-08
8.03369e-10
2.17882e-08
7.85392e-10
2.13728e-08
7.74435e-10
2.09641e-08
7.70233e-10
2.05605e-08
7.6748e-10
2.01629e-08
7.59312e-10
1.97748e-08
7.43652e-10
1.93986e-08
7.24005e-10
1.90336e-08
7.03429e-10
1.8678e-08
6.796e-10
1.83324e-08
6.4886e-10
1.79986e-08
6.14508e-10
1.76758e-08
5.8678e-10
1.73597e-08
5.71943e-10
1.70464e-08
5.65428e-10
1.67357e-08
5.59779e-10
1.64296e-08
5.54202e-10
1.61285e-08
5.53122e-10
1.5831e-08
5.56873e-10
1.55362e-08
5.58931e-10
1.52455e-08
5.54111e-10
1.49602e-08
5.44338e-10
1.46799e-08
5.33168e-10
1.44044e-08
5.19976e-10
1.41336e-08
5.0418e-10
1.38671e-08
4.8971e-10
1.36034e-08
4.80407e-10
1.33419e-08
4.75573e-10
1.30827e-08
4.73906e-10
1.28253e-08
4.76704e-10
1.2569e-08
4.83166e-10
1.23149e-08
4.87121e-10
1.20663e-08
4.82864e-10
1.18254e-08
4.7154e-10
1.15917e-08
4.58226e-10
1.13628e-08
4.4535e-10
1.11369e-08
4.32368e-10
1.09131e-08
4.20611e-10
1.06906e-08
4.14044e-10
1.04682e-08
4.14843e-10
1.02454e-08
4.20465e-10
1.00233e-08
4.26196e-10
9.80331e-09
4.29002e-10
9.58695e-09
4.28006e-10
9.37501e-09
4.2253e-10
9.16801e-09
4.11691e-10
8.96644e-09
3.96127e-10
8.77041e-09
3.79137e-10
8.57906e-09
3.6522e-10
8.39074e-09
3.5694e-10
8.20437e-09
3.52688e-10
8.02095e-09
3.48279e-10
7.84274e-09
3.41633e-10
7.67085e-09
3.34269e-10
7.50457e-09
3.26682e-10
7.34323e-09
3.15681e-10
7.1867e-09
2.99785e-10
7.03359e-09
2.83445e-10
6.8813e-09
2.73056e-10
6.72811e-09
2.70576e-10
6.57451e-09
2.73715e-10
6.42228e-09
2.78841e-10
6.27364e-09
2.81417e-10
6.13066e-09
2.777e-10
5.99404e-09
2.68049e-10
5.86224e-09
2.56166e-10
5.73215e-09
2.4611e-10
5.6004e-09
2.41448e-10
5.46479e-09
2.44164e-10
5.32541e-09
2.52593e-10
5.18401e-09
2.6315e-10
5.04312e-09
2.72223e-10
4.90522e-09
2.76424e-10
4.77142e-09
2.73443e-10
4.64099e-09
2.63369e-10
4.51236e-09
2.49912e-10
4.3839e-09
2.39541e-10
4.25457e-09
2.36325e-10
4.12597e-09
2.36395e-10
4.00249e-09
2.32508e-10
3.88593e-09
2.26849e-10
3.77358e-09
2.23148e-10
3.66213e-09
2.1767e-10
3.54928e-09
2.10966e-10
3.43517e-09
2.06976e-10
3.3223e-09
2.06067e-10
3.21252e-09
2.07016e-10
3.10721e-09
2.06198e-10
3.00751e-09
1.99181e-10
2.91364e-09
1.87011e-10
2.82237e-09
1.78068e-10
2.73096e-09
1.73594e-10
2.63924e-09
1.70227e-10
2.54821e-09
1.69377e-10
2.45795e-09
1.69251e-10
2.36978e-09
1.64868e-10
2.28543e-09
1.56474e-10
2.20294e-09
1.60057e-10
2.12305e-09
1.65626e-10
2.0408e-09
1.72112e-10
1.95627e-09
1.76091e-10
1.88384e-09
1.52726e-10
1.82946e-09
1.25634e-10
1.78342e-09
1.10859e-10
1.72929e-09
1.1042e-10
1.66743e-09
1.12778e-10
1.6098e-09
9.92595e-11
1.5627e-09
8.11835e-11
1.52722e-09
5.02001e-11
1.49114e-09
4.64074e-11
1.46203e-09
4.05902e-11
1.42794e-09
5.89878e-11
1.39686e-09
6.2381e-11
1.36508e-09
5.57343e-11
1.33575e-09
5.44801e-11
1.31411e-09
2.37415e-11
1.2866e-09
4.40737e-11
1.24463e-09
8.87722e-11
1.21332e-09
7.41055e-11
1.18369e-09
6.87375e-11
1.175e-09
2.70613e-11
1.16346e-09
3.89392e-11
1.15054e-09
3.60885e-11
1.14711e-09
2.49324e-12
1.1459e-09
-1.28863e-11
1.13576e-09
-2.91173e-11
1.11158e-09
1.80884e-11
1.12641e-09
-4.62589e-11
1.13621e-09
-8.80999e-12
1.12295e-09
2.10586e-11
1.13546e-09
1.60486e-11
1.15368e-09
-8.85419e-12
1.15791e-09
-3.71115e-11
1.17794e-09
-2.84969e-12
1.16425e-09
-1.22071e-11
1.11691e-09
2.24482e-12
1.13525e-09
-1.52609e-11
1.1081e-09
4.00007e-11
1.04212e-09
1.18703e-10
1.13711e-09
-1.01879e-10
1.2123e-09
-1.2702e-11
1.50708e-09
-2.74025e-10
1.77872e-09
-3.47766e-10
1.93167e-09
-1.64235e-10
1.91244e-09
-2.55254e-10
1.71929e-09
1.99131e-11
1.69662e-09
4.11531e-11
1.66265e-09
2.74682e-11
1.5842e-09
1.34378e-10
1.48868e-09
1.72663e-10
1.36573e-09
2.06909e-10
1.20691e-09
2.68495e-10
1.05763e-09
2.93937e-10
9.36587e-10
2.86828e-10
8.18182e-10
2.95145e-10
6.87292e-10
3.15326e-10
5.54482e-10
3.10408e-10
4.26072e-10
2.7969e-10
2.93896e-10
2.5351e-10
1.52329e-10
2.49798e-10
1.24778e-11
2.52908e-10
-1.09161e-10
2.37769e-10
-2.04763e-10
2.00389e-10
-2.75779e-10
1.53557e-10
-3.31101e-10
1.17008e-10
-3.83375e-10
1.02605e-10
-4.43797e-10
1.11977e-10
-5.19905e-10
1.40362e-10
-6.11994e-10
1.75677e-10
-7.15168e-10
2.05651e-10
-8.18584e-10
2.20285e-10
-9.12035e-10
2.17806e-10
-9.88825e-10
2.00946e-10
-1.04462e-09
1.71693e-10
-1.07719e-09
1.30502e-10
-1.08587e-09
7.70198e-11
-1.07215e-09
1.17843e-11
-1.03599e-09
-6.0925e-11
-9.81262e-10
-1.37199e-10
-9.08986e-10
-2.06093e-10
-8.19426e-10
-2.64232e-10
-7.12678e-10
-3.07428e-10
-5.89346e-10
-3.35357e-10
-4.5212e-10
-3.49386e-10
-3.07669e-10
-3.48817e-10
-1.66522e-10
-3.31205e-10
-4.1857e-11
-2.92287e-10
5.52617e-11
-2.32642e-10
1.23643e-10
-1.62704e-10
1.68069e-10
-9.63842e-11
2.03991e-10
-5.37567e-11
2.40991e-10
-3.89681e-11
2.83646e-10
-4.70663e-11
3.35341e-10
-7.4283e-11
3.9941e-10
-1.20269e-10
4.8266e-10
-1.84967e-10
5.90167e-10
-2.55886e-10
7.13774e-10
-3.00372e-10
8.28235e-10
-2.77262e-10
9.11548e-10
-1.83755e-10
9.64606e-10
-7.7853e-11
1.01529e-09
-4.3438e-11
1.09368e-09
-1.16136e-10
1.17433e-09
-2.14152e-10
1.19817e-09
-1.92681e-10
1.12813e-09
-1.38323e-12
1.00324e-09
2.27078e-10
9.33462e-10
2.86127e-10
9.77505e-10
1.25037e-10
1.01485e-09
-2.94538e-11
9.41322e-10
4.5869e-11
7.6436e-10
2.78206e-10
6.64845e-10
3.29594e-10
7.42486e-10
8.16656e-11
8.13302e-10
-1.38604e-10
7.28399e-10
-5.36458e-11
6.57912e-10
6.49798e-11
7.5179e-10
-8.72211e-11
8.31848e-10
-2.64411e-10
7.01017e-10
-1.59091e-10
5.9276e-10
4.8834e-11
5.59523e-10
1.41789e-10
4.78973e-10
1.27565e-10
4.30547e-10
2.48146e-10
5.21864e-10
1.02062e-10
6.51148e-10
-1.46406e-05
4.34258e-09
-1.46712e-05
1.12007e-07
-1.46921e-05
9.51657e-08
-1.47195e-05
6.34381e-08
-1.47378e-05
4.30173e-08
-1.47428e-05
1.79541e-08
-1.47359e-05
-1.21575e-08
-1.47217e-05
-3.74865e-08
-1.47006e-05
-6.05402e-08
-1.46732e-05
-8.30388e-08
-1.46403e-05
-1.02624e-07
-1.46007e-05
-1.21057e-07
-1.45574e-05
-1.38154e-07
-1.45052e-05
-1.53162e-07
-1.44473e-05
-1.68655e-07
-1.43835e-05
-1.84309e-07
-1.4312e-05
-2.02006e-07
-1.42351e-05
-2.19832e-07
-1.41527e-05
-2.3749e-07
-1.40641e-05
-2.54862e-07
-1.39693e-05
-2.71892e-07
-1.38689e-05
-2.88197e-07
-1.37638e-05
-3.03092e-07
-1.36543e-05
-3.17331e-07
-1.35396e-05
-3.30557e-07
-1.34198e-05
-3.43312e-07
-1.32954e-05
-3.56999e-07
-1.31676e-05
-3.68996e-07
-1.30364e-05
-3.78801e-07
-1.29013e-05
-3.89462e-07
-1.27625e-05
-4.00154e-07
-1.26199e-05
-4.06628e-07
-1.2476e-05
-4.16076e-07
-1.2332e-05
-4.29185e-07
-1.21856e-05
-4.37795e-07
-1.20352e-05
-4.45952e-07
-1.18814e-05
-4.54417e-07
-1.17241e-05
-4.6143e-07
-1.15657e-05
-4.70273e-07
-1.14048e-05
-4.80875e-07
-1.12397e-05
-4.87894e-07
-1.10707e-05
-4.93852e-07
-1.09019e-05
-4.99387e-07
-1.07314e-05
-5.04837e-07
-1.05582e-05
-5.08422e-07
-1.03843e-05
-5.11048e-07
-1.02114e-05
-5.13381e-07
-1.00388e-05
-5.15392e-07
-9.86644e-06
-5.17806e-07
-9.69371e-06
-5.20547e-07
-9.52002e-06
-5.23733e-07
-9.34626e-06
-5.27807e-07
-9.1717e-06
-5.32426e-07
-8.99572e-06
-5.36812e-07
-8.81849e-06
-5.40179e-07
-8.63992e-06
-5.42247e-07
-8.46044e-06
-5.43179e-07
-8.28104e-06
-5.42789e-07
-8.10168e-06
-5.4106e-07
-7.92242e-06
-5.38532e-07
-7.74371e-06
-5.36035e-07
-7.56532e-06
-5.33964e-07
-7.38681e-06
-5.32874e-07
-7.20774e-06
-5.33127e-07
-7.02781e-06
-5.35044e-07
-6.84656e-06
-5.38701e-07
-6.66373e-06
-5.44032e-07
-6.47935e-06
-5.50837e-07
-6.29347e-06
-5.59108e-07
-6.10615e-06
-5.69382e-07
-5.91788e-06
-5.82478e-07
-5.72983e-06
-5.99729e-07
-5.54381e-06
-6.23069e-07
-5.36328e-06
-6.54144e-07
-5.19393e-06
-6.93509e-07
-5.0454e-06
-7.40886e-07
-4.93016e-06
-7.93154e-07
-4.86876e-06
-8.44088e-07
-4.8133e-06
-8.81947e-07
-4.75428e-06
-9.08908e-07
-4.78424e-06
-9.47142e-07
-4.56822e-06
-9.44541e-07