/*--------------------------------*- C++ -*----------------------------------*\
| =========                 |                                                 |
| \\      /  F ield         | OpenFOAM: The Open Source CFD Toolbox           |
|  \\    /   O peration     | Version:  v2006                                 |
|   \\  /    A nd           | Website:  www.openfoam.com                      |
|    \\/     M anipulation  |                                                 |
\*---------------------------------------------------------------------------*/
FoamFile
{
    version     2.0;
    format      ascii;
    class       volScalarField;
    location    "0.9";
    object      k;
}
// * * * * * * * * * * * * * * * * * * * * * * * * * * * * * * * * * * * * * //

dimensions      [0 2 -2 0 0 0 0];


internalField   nonuniform List<scalar> 
33000
(
1.62157e-08
1.65717e-08
1.65485e-08
1.65298e-08
1.65139e-08
1.6497e-08
1.64785e-08
1.6459e-08
1.64389e-08
1.64182e-08
1.63976e-08
1.63777e-08
1.6359e-08
1.63442e-08
1.63321e-08
1.63201e-08
1.63045e-08
1.62827e-08
1.62581e-08
1.62331e-08
1.6207e-08
1.61799e-08
1.61527e-08
1.61255e-08
1.60984e-08
1.60712e-08
1.60429e-08
1.60132e-08
1.59827e-08
1.59506e-08
1.59142e-08
1.58705e-08
1.58269e-08
1.57842e-08
1.57442e-08
1.57088e-08
1.56743e-08
1.56383e-08
1.55999e-08
1.55595e-08
1.55181e-08
1.54726e-08
1.54175e-08
1.53593e-08
1.52987e-08
1.52339e-08
1.51682e-08
1.51014e-08
1.50323e-08
1.49631e-08
1.48922e-08
1.4815e-08
1.47376e-08
1.46642e-08
1.45956e-08
1.45292e-08
1.44639e-08
1.4399e-08
1.43338e-08
1.42649e-08
1.4189e-08
1.41138e-08
1.40392e-08
1.39651e-08
1.38913e-08
1.38168e-08
1.37382e-08
1.3657e-08
1.35767e-08
1.34948e-08
1.341e-08
1.33195e-08
1.32162e-08
1.30918e-08
1.29471e-08
1.27698e-08
1.2551e-08
1.24037e-08
1.13865e-08
1.14689e-08
1.11818e-08
1.1204e-08
1.11821e-08
1.11241e-08
1.11246e-08
1.10974e-08
1.10352e-08
1.0989e-08
1.09552e-08
1.09215e-08
1.08869e-08
1.08537e-08
1.0823e-08
1.07907e-08
1.07588e-08
1.07267e-08
1.06931e-08
1.06582e-08
1.06282e-08
1.05811e-08
1.05526e-08
1.05202e-08
1.04911e-08
1.04632e-08
1.04358e-08
1.04091e-08
1.03828e-08
1.03565e-08
1.03307e-08
1.03054e-08
1.02807e-08
1.02575e-08
1.02349e-08
1.02129e-08
1.01904e-08
1.01679e-08
1.01491e-08
1.01179e-08
1.01008e-08
1.00815e-08
1.00634e-08
1.00459e-08
1.00288e-08
1.00133e-08
9.99839e-09
9.98357e-09
9.96895e-09
9.95458e-09
9.94038e-09
9.9266e-09
9.91399e-09
9.9022e-09
9.89067e-09
9.8793e-09
9.86807e-09
9.85703e-09
9.84616e-09
9.83552e-09
9.82528e-09
9.81612e-09
9.80765e-09
9.79938e-09
9.79125e-09
9.78324e-09
9.77536e-09
9.76767e-09
9.76044e-09
9.75418e-09
9.74832e-09
9.74256e-09
9.73685e-09
9.73122e-09
9.72572e-09
9.72077e-09
9.71662e-09
9.71268e-09
9.70877e-09
9.70487e-09
9.70099e-09
9.69725e-09
9.69415e-09
9.69163e-09
9.68919e-09
9.68674e-09
9.68423e-09
9.68166e-09
9.67904e-09
9.67642e-09
9.67384e-09
9.67167e-09
9.67014e-09
9.66872e-09
9.66726e-09
9.66571e-09
9.66407e-09
9.66237e-09
9.6606e-09
9.65875e-09
9.65681e-09
9.65482e-09
9.65277e-09
9.65065e-09
9.64846e-09
9.64624e-09
9.64398e-09
9.64167e-09
9.63931e-09
9.63691e-09
9.63447e-09
9.632e-09
9.62948e-09
9.62693e-09
9.62437e-09
9.62179e-09
9.61918e-09
9.61655e-09
9.61389e-09
9.61122e-09
9.60852e-09
9.60581e-09
9.60309e-09
9.60035e-09
9.59759e-09
9.59484e-09
9.59207e-09
9.58931e-09
9.58655e-09
9.5838e-09
9.58105e-09
9.57833e-09
9.57562e-09
9.57293e-09
9.57024e-09
9.56755e-09
9.56487e-09
9.56218e-09
9.5595e-09
9.55681e-09
9.55413e-09
9.55148e-09
9.54884e-09
9.5462e-09
9.54358e-09
9.54099e-09
9.5384e-09
9.53582e-09
9.53325e-09
9.5307e-09
9.52818e-09
9.52568e-09
9.52321e-09
9.52076e-09
9.51834e-09
9.51594e-09
9.51357e-09
9.51123e-09
9.5089e-09
9.5066e-09
9.50431e-09
9.50206e-09
9.49984e-09
9.49765e-09
9.4955e-09
9.49336e-09
9.49125e-09
9.48915e-09
9.48708e-09
9.48503e-09
9.483e-09
9.48099e-09
9.47899e-09
9.47702e-09
9.47508e-09
9.47317e-09
9.4713e-09
9.46944e-09
9.46761e-09
9.46581e-09
9.46406e-09
9.46234e-09
9.46065e-09
9.45897e-09
9.45731e-09
9.45566e-09
9.45403e-09
9.45242e-09
9.45083e-09
9.44926e-09
9.44772e-09
9.44621e-09
9.44473e-09
9.44329e-09
9.44189e-09
9.44051e-09
9.43915e-09
9.43781e-09
9.43649e-09
9.43518e-09
9.43389e-09
9.4326e-09
9.43133e-09
9.43006e-09
9.4288e-09
9.42757e-09
9.42637e-09
9.4252e-09
9.42406e-09
9.42295e-09
9.42188e-09
9.42084e-09
9.41983e-09
9.41885e-09
9.41789e-09
9.41696e-09
9.41604e-09
9.41513e-09
9.41422e-09
9.41333e-09
9.41244e-09
9.41157e-09
9.41071e-09
9.40987e-09
9.40904e-09
9.40823e-09
9.40745e-09
9.4067e-09
9.40597e-09
9.40528e-09
9.40461e-09
9.40397e-09
9.40334e-09
9.40272e-09
9.40211e-09
9.4015e-09
9.40089e-09
9.40029e-09
9.3997e-09
9.39911e-09
9.39855e-09
9.398e-09
9.39748e-09
9.39698e-09
9.3965e-09
9.39604e-09
9.39561e-09
9.39519e-09
9.39479e-09
9.39438e-09
9.39396e-09
9.39353e-09
9.39311e-09
9.3927e-09
9.3923e-09
9.39192e-09
9.39156e-09
9.39123e-09
9.39094e-09
9.39066e-09
9.39038e-09
9.39011e-09
9.38984e-09
9.38957e-09
9.38928e-09
9.38898e-09
9.38868e-09
9.38838e-09
9.38809e-09
9.3878e-09
9.38753e-09
9.38728e-09
9.38704e-09
9.3868e-09
9.38657e-09
9.38633e-09
9.38608e-09
9.38582e-09
9.38555e-09
9.38528e-09
9.38502e-09
9.38477e-09
9.38454e-09
9.38433e-09
9.38412e-09
9.38393e-09
9.38372e-09
9.38351e-09
9.38329e-09
9.38307e-09
9.38285e-09
9.38263e-09
9.38242e-09
9.38223e-09
9.38206e-09
9.38189e-09
9.38172e-09
9.38156e-09
9.38139e-09
9.38123e-09
9.38107e-09
9.38091e-09
9.38076e-09
9.38062e-09
9.38051e-09
9.3804e-09
9.38029e-09
9.38017e-09
9.38003e-09
9.37989e-09
9.37975e-09
9.37962e-09
9.37949e-09
9.37937e-09
9.37926e-09
9.37914e-09
9.37901e-09
9.37887e-09
9.37871e-09
9.37855e-09
9.37839e-09
9.37824e-09
9.37811e-09
9.37799e-09
9.37786e-09
9.37774e-09
9.37761e-09
9.37749e-09
9.37736e-09
9.37725e-09
9.37714e-09
9.37704e-09
9.37694e-09
9.37683e-09
9.37672e-09
9.37662e-09
9.37653e-09
9.37645e-09
9.37638e-09
9.37631e-09
9.37625e-09
9.37617e-09
9.37611e-09
9.37605e-09
9.37597e-09
9.37587e-09
9.37578e-09
9.37568e-09
9.3756e-09
9.37553e-09
9.37547e-09
9.3754e-09
9.37536e-09
9.3753e-09
9.37528e-09
9.37527e-09
9.37527e-09
9.37525e-09
9.3752e-09
9.37517e-09
9.37513e-09
9.37512e-09
9.37513e-09
9.37509e-09
9.37504e-09
9.37499e-09
9.37497e-09
9.37496e-09
9.37493e-09
9.37493e-09
9.37495e-09
9.37502e-09
9.37505e-09
9.37509e-09
9.37513e-09
9.37512e-09
9.37513e-09
9.37508e-09
9.37514e-09
9.37516e-09
9.37514e-09
9.37525e-09
9.37527e-09
9.37526e-09
9.37521e-09
9.37522e-09
9.3752e-09
9.37511e-09
9.37517e-09
9.37524e-09
9.3751e-09
9.37605e-09
9.3757e-09
9.37567e-09
9.37561e-09
9.37549e-09
9.37537e-09
9.37524e-09
9.37509e-09
9.37492e-09
9.37475e-09
9.37463e-09
9.37457e-09
9.3746e-09
9.37467e-09
9.37477e-09
9.37491e-09
9.37506e-09
9.37522e-09
9.37536e-09
9.37548e-09
9.37557e-09
9.37566e-09
9.37575e-09
9.37587e-09
9.37601e-09
9.37617e-09
9.37634e-09
9.37651e-09
9.37668e-09
9.37683e-09
9.37694e-09
9.37701e-09
9.37701e-09
9.37695e-09
9.37682e-09
9.37663e-09
9.37639e-09
9.37613e-09
9.37586e-09
9.37559e-09
9.37534e-09
9.37512e-09
9.37495e-09
9.37486e-09
9.37482e-09
9.3748e-09
9.37477e-09
9.37473e-09
9.37469e-09
9.37469e-09
9.37476e-09
9.37489e-09
9.37506e-09
9.37523e-09
9.37535e-09
9.37539e-09
9.37535e-09
9.37533e-09
9.37542e-09
9.37561e-09
9.37573e-09
9.37569e-09
9.37544e-09
9.37513e-09
9.37494e-09
9.37495e-09
9.37491e-09
9.37477e-09
9.37454e-09
9.37441e-09
9.3746e-09
9.3746e-09
9.37455e-09
9.3747e-09
9.37515e-09
9.3753e-09
9.37519e-09
9.37507e-09
9.37495e-09
9.37473e-09
9.3816e-09
1.00487e-08
1.00585e-08
1.00539e-08
1.00489e-08
1.0046e-08
1.0044e-08
1.00416e-08
1.00389e-08
1.0037e-08
1.00357e-08
1.00346e-08
1.00338e-08
1.0033e-08
1.00323e-08
1.00319e-08
1.00315e-08
1.00312e-08
1.0031e-08
1.00308e-08
1.00306e-08
1.00303e-08
1.003e-08
1.00298e-08
1.00295e-08
1.00293e-08
1.0029e-08
1.00288e-08
1.00285e-08
1.00281e-08
1.00277e-08
1.00273e-08
1.00271e-08
1.00269e-08
1.00268e-08
1.00268e-08
1.00268e-08
1.00268e-08
1.00268e-08
1.00267e-08
1.00267e-08
1.00267e-08
1.00267e-08
1.00267e-08
1.00267e-08
1.00266e-08
1.00265e-08
1.00264e-08
1.00264e-08
1.00264e-08
1.00263e-08
1.00263e-08
1.00262e-08
1.0026e-08
1.00258e-08
1.00256e-08
1.00253e-08
1.0025e-08
1.00247e-08
1.00244e-08
1.00241e-08
1.00237e-08
1.00231e-08
1.00226e-08
1.00223e-08
1.00221e-08
1.00221e-08
1.00221e-08
1.00222e-08
1.00224e-08
1.00225e-08
1.00228e-08
1.00236e-08
1.0025e-08
1.00272e-08
1.00305e-08
1.00358e-08
1.00436e-08
1.00519e-08
1.00438e-08
1.00231e-08
1.00187e-08
1.00135e-08
1.00148e-08
1.00129e-08
1.00132e-08
1.00151e-08
1.00121e-08
1.00104e-08
1.00089e-08
1.00103e-08
1.00106e-08
1.00098e-08
1.00102e-08
1.00102e-08
1.00102e-08
1.00102e-08
1.00102e-08
1.00101e-08
1.00101e-08
1.00099e-08
1.00096e-08
1.00097e-08
1.00095e-08
1.0009e-08
1.00089e-08
1.00087e-08
1.00086e-08
1.00084e-08
1.00082e-08
1.0008e-08
1.00078e-08
1.00076e-08
1.00074e-08
1.00073e-08
1.00071e-08
1.00071e-08
1.00071e-08
1.00066e-08
1.00061e-08
1.00065e-08
1.00063e-08
1.00055e-08
1.00055e-08
1.00053e-08
1.00052e-08
1.00051e-08
1.00049e-08
1.00044e-08
1.00042e-08
1.0004e-08
1.00038e-08
1.00036e-08
1.00034e-08
1.00032e-08
1.0003e-08
1.00028e-08
1.00026e-08
1.00024e-08
1.00023e-08
1.00021e-08
1.00019e-08
1.00018e-08
1.00016e-08
1.00015e-08
1.00013e-08
1.00012e-08
1.0001e-08
1.00009e-08
1.00007e-08
1.00006e-08
1.00005e-08
1.00003e-08
1.00002e-08
1.00001e-08
9.99994e-09
9.99982e-09
9.9997e-09
9.99959e-09
9.99948e-09
9.99937e-09
9.99926e-09
9.99915e-09
9.99905e-09
9.99895e-09
9.99886e-09
9.99876e-09
9.99866e-09
9.99857e-09
9.99848e-09
9.9984e-09
9.99831e-09
9.99823e-09
9.99815e-09
9.99806e-09
9.99799e-09
9.99791e-09
9.99784e-09
9.99777e-09
9.9977e-09
9.99763e-09
9.99757e-09
9.99751e-09
9.99745e-09
9.9974e-09
9.99735e-09
9.9973e-09
9.99726e-09
9.99722e-09
9.99718e-09
9.99715e-09
9.99712e-09
9.9971e-09
9.99707e-09
9.99704e-09
9.99701e-09
9.99699e-09
9.99696e-09
9.99694e-09
9.99692e-09
9.9969e-09
9.99689e-09
9.99687e-09
9.99685e-09
9.99684e-09
9.99682e-09
9.9968e-09
9.99679e-09
9.99677e-09
9.99676e-09
9.99675e-09
9.99674e-09
9.99673e-09
9.99671e-09
9.9967e-09
9.99669e-09
9.99668e-09
9.99666e-09
9.99665e-09
9.99664e-09
9.99663e-09
9.99662e-09
9.99661e-09
9.9966e-09
9.99659e-09
9.99657e-09
9.99656e-09
9.99655e-09
9.99653e-09
9.99652e-09
9.99651e-09
9.9965e-09
9.99649e-09
9.99648e-09
9.99647e-09
9.99646e-09
9.99644e-09
9.99643e-09
9.99641e-09
9.9964e-09
9.99639e-09
9.99638e-09
9.99638e-09
9.99637e-09
9.99636e-09
9.99635e-09
9.99635e-09
9.99634e-09
9.99633e-09
9.99632e-09
9.99631e-09
9.9963e-09
9.99629e-09
9.99628e-09
9.99627e-09
9.99626e-09
9.99625e-09
9.99625e-09
9.99624e-09
9.99624e-09
9.99623e-09
9.99622e-09
9.99622e-09
9.99621e-09
9.9962e-09
9.99619e-09
9.99618e-09
9.99617e-09
9.99617e-09
9.99616e-09
9.99615e-09
9.99614e-09
9.99614e-09
9.99613e-09
9.99613e-09
9.99612e-09
9.99612e-09
9.99611e-09
9.99611e-09
9.9961e-09
9.99609e-09
9.99609e-09
9.99608e-09
9.99608e-09
9.99607e-09
9.99607e-09
9.99606e-09
9.99606e-09
9.99605e-09
9.99605e-09
9.99605e-09
9.99604e-09
9.99604e-09
9.99604e-09
9.99603e-09
9.99603e-09
9.99602e-09
9.99602e-09
9.99601e-09
9.99601e-09
9.99601e-09
9.996e-09
9.996e-09
9.99599e-09
9.99599e-09
9.99599e-09
9.99599e-09
9.99599e-09
9.99599e-09
9.99598e-09
9.99598e-09
9.99598e-09
9.99598e-09
9.99598e-09
9.99598e-09
9.99598e-09
9.99598e-09
9.99598e-09
9.99598e-09
9.99598e-09
9.99597e-09
9.99597e-09
9.99597e-09
9.99597e-09
9.99597e-09
9.99597e-09
9.99597e-09
9.99597e-09
9.99597e-09
9.99596e-09
9.99596e-09
9.99596e-09
9.99596e-09
9.99596e-09
9.99596e-09
9.99596e-09
9.99596e-09
9.99595e-09
9.99595e-09
9.99595e-09
9.99595e-09
9.99595e-09
9.99595e-09
9.99594e-09
9.99594e-09
9.99594e-09
9.99594e-09
9.99594e-09
9.99594e-09
9.99594e-09
9.99593e-09
9.99593e-09
9.99593e-09
9.99593e-09
9.99593e-09
9.99592e-09
9.99592e-09
9.99592e-09
9.99592e-09
9.99592e-09
9.99592e-09
9.99591e-09
9.99591e-09
9.99591e-09
9.99591e-09
9.99591e-09
9.99591e-09
9.99591e-09
9.9959e-09
9.9959e-09
9.9959e-09
9.9959e-09
9.9959e-09
9.9959e-09
9.9959e-09
9.9959e-09
9.9959e-09
9.9959e-09
9.9959e-09
9.99589e-09
9.99589e-09
9.99589e-09
9.99589e-09
9.99589e-09
9.99589e-09
9.99589e-09
9.99589e-09
9.99589e-09
9.99589e-09
9.99589e-09
9.99589e-09
9.99589e-09
9.99589e-09
9.99588e-09
9.99588e-09
9.99588e-09
9.99588e-09
9.99588e-09
9.99588e-09
9.99588e-09
9.99588e-09
9.99588e-09
9.99588e-09
9.99588e-09
9.99587e-09
9.99587e-09
9.99587e-09
9.99587e-09
9.99587e-09
9.99587e-09
9.99587e-09
9.99587e-09
9.99587e-09
9.99587e-09
9.99587e-09
9.99587e-09
9.99587e-09
9.99587e-09
9.99587e-09
9.99587e-09
9.99587e-09
9.99587e-09
9.99586e-09
9.99586e-09
9.99586e-09
9.99586e-09
9.99586e-09
9.99586e-09
9.99586e-09
9.99586e-09
9.99586e-09
9.99586e-09
9.99586e-09
9.99587e-09
9.99587e-09
9.99586e-09
9.99586e-09
9.99586e-09
9.99586e-09
9.99586e-09
9.99586e-09
9.99586e-09
9.99586e-09
9.99586e-09
9.99586e-09
9.99586e-09
9.99586e-09
9.99586e-09
9.99586e-09
9.99586e-09
9.99586e-09
9.99586e-09
9.99586e-09
9.99586e-09
9.99586e-09
9.99586e-09
9.99586e-09
9.99586e-09
9.99586e-09
9.99586e-09
9.99586e-09
9.99586e-09
9.99586e-09
9.99585e-09
9.99586e-09
9.99585e-09
9.99586e-09
9.99585e-09
9.99584e-09
9.99583e-09
9.99583e-09
9.99582e-09
9.99583e-09
9.99582e-09
9.99582e-09
9.99582e-09
9.99582e-09
9.99582e-09
9.99582e-09
9.99582e-09
9.99582e-09
9.99582e-09
9.99582e-09
9.99583e-09
9.99583e-09
9.99583e-09
9.99583e-09
9.99583e-09
9.99584e-09
9.99584e-09
9.99584e-09
9.99584e-09
9.99585e-09
9.99585e-09
9.99585e-09
9.99585e-09
9.99585e-09
9.99585e-09
9.99586e-09
9.99586e-09
9.99587e-09
9.99587e-09
9.99588e-09
9.99588e-09
9.99589e-09
9.99589e-09
9.99589e-09
9.99589e-09
9.9959e-09
9.9959e-09
9.9959e-09
9.9959e-09
9.9959e-09
9.9959e-09
9.9959e-09
9.9959e-09
9.9959e-09
9.9959e-09
9.9959e-09
9.9959e-09
9.9959e-09
9.99591e-09
9.99591e-09
9.99591e-09
9.99591e-09
9.99591e-09
9.99591e-09
9.99591e-09
9.99591e-09
9.99591e-09
9.99591e-09
9.9959e-09
9.99589e-09
9.9959e-09
9.9959e-09
9.99591e-09
9.9959e-09
9.99589e-09
9.9959e-09
9.99591e-09
9.99591e-09
9.99591e-09
9.99591e-09
9.99591e-09
9.99591e-09
9.99591e-09
9.9959e-09
9.9959e-09
9.99589e-09
9.99589e-09
9.99594e-09
1.00004e-08
1.00022e-08
1.00032e-08
1.0004e-08
1.00049e-08
1.00057e-08
1.00065e-08
1.00072e-08
1.00077e-08
1.0008e-08
1.00081e-08
1.00082e-08
1.00082e-08
1.0008e-08
1.00078e-08
1.00076e-08
1.00073e-08
1.0007e-08
1.00066e-08
1.00063e-08
1.00059e-08
1.00056e-08
1.00053e-08
1.00051e-08
1.00048e-08
1.00045e-08
1.00043e-08
1.00039e-08
1.00037e-08
1.00034e-08
1.00032e-08
1.00032e-08
1.00031e-08
1.00031e-08
1.00031e-08
1.00031e-08
1.00031e-08
1.00031e-08
1.00031e-08
1.00032e-08
1.00033e-08
1.00034e-08
1.00034e-08
1.00035e-08
1.00035e-08
1.00036e-08
1.00036e-08
1.00036e-08
1.00036e-08
1.00036e-08
1.00036e-08
1.00036e-08
1.00036e-08
1.00035e-08
1.00035e-08
1.00034e-08
1.00033e-08
1.00032e-08
1.00031e-08
1.00029e-08
1.00028e-08
1.00026e-08
1.00025e-08
1.00024e-08
1.00023e-08
1.00022e-08
1.00023e-08
1.00024e-08
1.00025e-08
1.00026e-08
1.00027e-08
1.00029e-08
1.0003e-08
1.0003e-08
1.00031e-08
1.00031e-08
1.00032e-08
1.00032e-08
1.00028e-08
1.00025e-08
1.00031e-08
1.00038e-08
1.00036e-08
1.00038e-08
1.00048e-08
1.00052e-08
1.0005e-08
1.00051e-08
1.00049e-08
1.00053e-08
1.00035e-08
1.0004e-08
1.00045e-08
1.00047e-08
1.00045e-08
1.00048e-08
1.00043e-08
1.00042e-08
1.00042e-08
1.00042e-08
1.00043e-08
1.00043e-08
1.00043e-08
1.00043e-08
1.00046e-08
1.00046e-08
1.00044e-08
1.00043e-08
1.00041e-08
1.0004e-08
1.00039e-08
1.00037e-08
1.00037e-08
1.00037e-08
1.00036e-08
1.00036e-08
1.00035e-08
1.00035e-08
1.00036e-08
1.00036e-08
1.00038e-08
1.00038e-08
1.00046e-08
1.00046e-08
1.00037e-08
1.00037e-08
1.00034e-08
1.00034e-08
1.00032e-08
1.00032e-08
1.00031e-08
1.00031e-08
1.0003e-08
1.0003e-08
1.0003e-08
1.00029e-08
1.00029e-08
1.00029e-08
1.00028e-08
1.00028e-08
1.00028e-08
1.00027e-08
1.00027e-08
1.00027e-08
1.00026e-08
1.00026e-08
1.00025e-08
1.00025e-08
1.00025e-08
1.00024e-08
1.00024e-08
1.00024e-08
1.00023e-08
1.00023e-08
1.00022e-08
1.00022e-08
1.00021e-08
1.00021e-08
1.00021e-08
1.0002e-08
1.0002e-08
1.00019e-08
1.00019e-08
1.00018e-08
1.00018e-08
1.00017e-08
1.00017e-08
1.00016e-08
1.00016e-08
1.00015e-08
1.00015e-08
1.00014e-08
1.00014e-08
1.00013e-08
1.00013e-08
1.00013e-08
1.00012e-08
1.00012e-08
1.00011e-08
1.00011e-08
1.00011e-08
1.0001e-08
1.0001e-08
1.00009e-08
1.00009e-08
1.00009e-08
1.00008e-08
1.00008e-08
1.00008e-08
1.00007e-08
1.00007e-08
1.00007e-08
1.00006e-08
1.00006e-08
1.00006e-08
1.00005e-08
1.00005e-08
1.00005e-08
1.00005e-08
1.00004e-08
1.00004e-08
1.00004e-08
1.00004e-08
1.00004e-08
1.00003e-08
1.00003e-08
1.00003e-08
1.00003e-08
1.00003e-08
1.00003e-08
1.00003e-08
1.00003e-08
1.00003e-08
1.00003e-08
1.00003e-08
1.00003e-08
1.00003e-08
1.00002e-08
1.00002e-08
1.00002e-08
1.00002e-08
1.00002e-08
1.00002e-08
1.00002e-08
1.00002e-08
1.00002e-08
1.00002e-08
1.00002e-08
1.00002e-08
1.00002e-08
1.00002e-08
1.00002e-08
1.00001e-08
1.00001e-08
1.00001e-08
1.00001e-08
1.00001e-08
1.00001e-08
1.00001e-08
1.00001e-08
1e-08
1e-08
1e-08
1e-08
1e-08
1e-08
9.99999e-09
9.99998e-09
9.99997e-09
9.99995e-09
9.99994e-09
9.99993e-09
9.99991e-09
9.9999e-09
9.99989e-09
9.99988e-09
9.99988e-09
9.99988e-09
9.99987e-09
9.99986e-09
9.99985e-09
9.99983e-09
9.99982e-09
9.9998e-09
9.99979e-09
9.99977e-09
9.99976e-09
9.99975e-09
9.99974e-09
9.99973e-09
9.99973e-09
9.99972e-09
9.99971e-09
9.9997e-09
9.99969e-09
9.99968e-09
9.99967e-09
9.99966e-09
9.99964e-09
9.99963e-09
9.99961e-09
9.9996e-09
9.99959e-09
9.99958e-09
9.99958e-09
9.99957e-09
9.99956e-09
9.99955e-09
9.99955e-09
9.99954e-09
9.99953e-09
9.99952e-09
9.99951e-09
9.9995e-09
9.99948e-09
9.99947e-09
9.99946e-09
9.99945e-09
9.99943e-09
9.99942e-09
9.99941e-09
9.9994e-09
9.9994e-09
9.99939e-09
9.99938e-09
9.99938e-09
9.99938e-09
9.99937e-09
9.99937e-09
9.99936e-09
9.99936e-09
9.99935e-09
9.99935e-09
9.99934e-09
9.99933e-09
9.99933e-09
9.99932e-09
9.99932e-09
9.99931e-09
9.99931e-09
9.99931e-09
9.99931e-09
9.9993e-09
9.9993e-09
9.9993e-09
9.9993e-09
9.9993e-09
9.99929e-09
9.99929e-09
9.99928e-09
9.99928e-09
9.99927e-09
9.99927e-09
9.99927e-09
9.99927e-09
9.99927e-09
9.99927e-09
9.99927e-09
9.99926e-09
9.99926e-09
9.99926e-09
9.99925e-09
9.99925e-09
9.99925e-09
9.99925e-09
9.99924e-09
9.99924e-09
9.99924e-09
9.99924e-09
9.99924e-09
9.99924e-09
9.99924e-09
9.99923e-09
9.99923e-09
9.99923e-09
9.99923e-09
9.99922e-09
9.99922e-09
9.99922e-09
9.99922e-09
9.99922e-09
9.99922e-09
9.99922e-09
9.99922e-09
9.99921e-09
9.99921e-09
9.99921e-09
9.99921e-09
9.99921e-09
9.9992e-09
9.9992e-09
9.9992e-09
9.9992e-09
9.9992e-09
9.9992e-09
9.9992e-09
9.9992e-09
9.9992e-09
9.99919e-09
9.99919e-09
9.99919e-09
9.99919e-09
9.99919e-09
9.99919e-09
9.99919e-09
9.99919e-09
9.99919e-09
9.99919e-09
9.99919e-09
9.99919e-09
9.99919e-09
9.99919e-09
9.99918e-09
9.99918e-09
9.99918e-09
9.99918e-09
9.99918e-09
9.99918e-09
9.99918e-09
9.99918e-09
9.99918e-09
9.99918e-09
9.99918e-09
9.99918e-09
9.99917e-09
9.99917e-09
9.99917e-09
9.99917e-09
9.99917e-09
9.99917e-09
9.99917e-09
9.99917e-09
9.99917e-09
9.99917e-09
9.99917e-09
9.99917e-09
9.99917e-09
9.99917e-09
9.99917e-09
9.99917e-09
9.99917e-09
9.99917e-09
9.99917e-09
9.99917e-09
9.99917e-09
9.99917e-09
9.99917e-09
9.99917e-09
9.99917e-09
9.99917e-09
9.99917e-09
9.99917e-09
9.99917e-09
9.99917e-09
9.99916e-09
9.99916e-09
9.99916e-09
9.99916e-09
9.99916e-09
9.99916e-09
9.99916e-09
9.99916e-09
9.99916e-09
9.99916e-09
9.99916e-09
9.99916e-09
9.99916e-09
9.99916e-09
9.99916e-09
9.99916e-09
9.99916e-09
9.99916e-09
9.99916e-09
9.99916e-09
9.99916e-09
9.99916e-09
9.99916e-09
9.99916e-09
9.99916e-09
9.99916e-09
9.99917e-09
9.99917e-09
9.99918e-09
9.99919e-09
9.99915e-09
9.99914e-09
9.99913e-09
9.99913e-09
9.99914e-09
9.99913e-09
9.99913e-09
9.99913e-09
9.99913e-09
9.99913e-09
9.99913e-09
9.99913e-09
9.99913e-09
9.99913e-09
9.99913e-09
9.99913e-09
9.99913e-09
9.99914e-09
9.99914e-09
9.99914e-09
9.99914e-09
9.99914e-09
9.99914e-09
9.99914e-09
9.99914e-09
9.99915e-09
9.99915e-09
9.99916e-09
9.99916e-09
9.99916e-09
9.99916e-09
9.99916e-09
9.99916e-09
9.99916e-09
9.99917e-09
9.99917e-09
9.99917e-09
9.99917e-09
9.99918e-09
9.99918e-09
9.99918e-09
9.99918e-09
9.99919e-09
9.99919e-09
9.99919e-09
9.99919e-09
9.9992e-09
9.99919e-09
9.99919e-09
9.99919e-09
9.99919e-09
9.9992e-09
9.9992e-09
9.9992e-09
9.9992e-09
9.9992e-09
9.9992e-09
9.9992e-09
9.99921e-09
9.99921e-09
9.99921e-09
9.9992e-09
9.9992e-09
9.9992e-09
9.99921e-09
9.99921e-09
9.9992e-09
9.9992e-09
9.99921e-09
9.9992e-09
9.99921e-09
9.9992e-09
9.99921e-09
9.99921e-09
9.99921e-09
9.99923e-09
9.9992e-09
9.99921e-09
9.99922e-09
9.99923e-09
9.9992e-09
9.9992e-09
9.9992e-09
9.99921e-09
9.99922e-09
9.99923e-09
1.00148e-08
1.00121e-08
1.00104e-08
1.00099e-08
1.00096e-08
1.00094e-08
1.00095e-08
1.00096e-08
1.00096e-08
1.00095e-08
1.00094e-08
1.00093e-08
1.00092e-08
1.0009e-08
1.00087e-08
1.00085e-08
1.00083e-08
1.00081e-08
1.00078e-08
1.00075e-08
1.00072e-08
1.0007e-08
1.00067e-08
1.00066e-08
1.00064e-08
1.00062e-08
1.0006e-08
1.00058e-08
1.00055e-08
1.00052e-08
1.00049e-08
1.00047e-08
1.00046e-08
1.00046e-08
1.00046e-08
1.00047e-08
1.00048e-08
1.00049e-08
1.0005e-08
1.0005e-08
1.00051e-08
1.00052e-08
1.00052e-08
1.00051e-08
1.00051e-08
1.00049e-08
1.00048e-08
1.00047e-08
1.00045e-08
1.00044e-08
1.00043e-08
1.00042e-08
1.00041e-08
1.0004e-08
1.00039e-08
1.00038e-08
1.00037e-08
1.00036e-08
1.00034e-08
1.00032e-08
1.00031e-08
1.00029e-08
1.00027e-08
1.00026e-08
1.00025e-08
1.00025e-08
1.00026e-08
1.00027e-08
1.00028e-08
1.00029e-08
1.0003e-08
1.00031e-08
1.00032e-08
1.00032e-08
1.00032e-08
1.00032e-08
1.00031e-08
1.00029e-08
1.00028e-08
1.00025e-08
1.00018e-08
1.0002e-08
1.00026e-08
1.00032e-08
1.00037e-08
1.00035e-08
1.00036e-08
1.00041e-08
1.0005e-08
1.00056e-08
1.00054e-08
1.00054e-08
1.00058e-08
1.00039e-08
1.0004e-08
1.00046e-08
1.00047e-08
1.00045e-08
1.00047e-08
1.00042e-08
1.00042e-08
1.00042e-08
1.00042e-08
1.00043e-08
1.00043e-08
1.00044e-08
1.00044e-08
1.00044e-08
1.00046e-08
1.00045e-08
1.00041e-08
1.00041e-08
1.00038e-08
1.00038e-08
1.00037e-08
1.00036e-08
1.00036e-08
1.00036e-08
1.00036e-08
1.00035e-08
1.00035e-08
1.00036e-08
1.00036e-08
1.00039e-08
1.00038e-08
1.00047e-08
1.00046e-08
1.00037e-08
1.00037e-08
1.00033e-08
1.00033e-08
1.00032e-08
1.00031e-08
1.0003e-08
1.0003e-08
1.0003e-08
1.00029e-08
1.00029e-08
1.00029e-08
1.00028e-08
1.00028e-08
1.00028e-08
1.00027e-08
1.00027e-08
1.00027e-08
1.00026e-08
1.00026e-08
1.00025e-08
1.00025e-08
1.00025e-08
1.00024e-08
1.00024e-08
1.00023e-08
1.00023e-08
1.00023e-08
1.00022e-08
1.00022e-08
1.00021e-08
1.00021e-08
1.0002e-08
1.0002e-08
1.0002e-08
1.00019e-08
1.00019e-08
1.00018e-08
1.00018e-08
1.00017e-08
1.00017e-08
1.00016e-08
1.00016e-08
1.00015e-08
1.00015e-08
1.00014e-08
1.00014e-08
1.00014e-08
1.00013e-08
1.00013e-08
1.00013e-08
1.00012e-08
1.00012e-08
1.00011e-08
1.00011e-08
1.0001e-08
1.0001e-08
1.0001e-08
1.00009e-08
1.00009e-08
1.00008e-08
1.00008e-08
1.00008e-08
1.00007e-08
1.00007e-08
1.00007e-08
1.00006e-08
1.00006e-08
1.00006e-08
1.00006e-08
1.00006e-08
1.00005e-08
1.00005e-08
1.00005e-08
1.00004e-08
1.00004e-08
1.00004e-08
1.00004e-08
1.00004e-08
1.00004e-08
1.00004e-08
1.00003e-08
1.00003e-08
1.00003e-08
1.00003e-08
1.00003e-08
1.00003e-08
1.00003e-08
1.00003e-08
1.00003e-08
1.00003e-08
1.00003e-08
1.00003e-08
1.00003e-08
1.00003e-08
1.00003e-08
1.00002e-08
1.00002e-08
1.00002e-08
1.00002e-08
1.00002e-08
1.00002e-08
1.00002e-08
1.00002e-08
1.00002e-08
1.00002e-08
1.00002e-08
1.00001e-08
1.00001e-08
1.00001e-08
1.00001e-08
1.00001e-08
1.00001e-08
1.00001e-08
1.00001e-08
1.00001e-08
1e-08
1e-08
1e-08
1e-08
1e-08
9.99999e-09
9.99997e-09
9.99996e-09
9.99995e-09
9.99994e-09
9.99993e-09
9.99992e-09
9.99991e-09
9.99991e-09
9.9999e-09
9.99989e-09
9.99988e-09
9.99987e-09
9.99986e-09
9.99984e-09
9.99983e-09
9.99981e-09
9.9998e-09
9.99978e-09
9.99978e-09
9.99977e-09
9.99976e-09
9.99975e-09
9.99974e-09
9.99974e-09
9.99972e-09
9.99971e-09
9.9997e-09
9.99969e-09
9.99967e-09
9.99966e-09
9.99965e-09
9.99963e-09
9.99962e-09
9.99961e-09
9.9996e-09
9.9996e-09
9.99959e-09
9.99959e-09
9.99958e-09
9.99957e-09
9.99957e-09
9.99956e-09
9.99955e-09
9.99954e-09
9.99952e-09
9.99951e-09
9.99949e-09
9.99948e-09
9.99947e-09
9.99945e-09
9.99944e-09
9.99943e-09
9.99942e-09
9.99942e-09
9.99941e-09
9.99941e-09
9.99941e-09
9.9994e-09
9.9994e-09
9.9994e-09
9.99939e-09
9.99938e-09
9.99938e-09
9.99937e-09
9.99936e-09
9.99935e-09
9.99935e-09
9.99934e-09
9.99934e-09
9.99934e-09
9.99934e-09
9.99933e-09
9.99933e-09
9.99933e-09
9.99933e-09
9.99933e-09
9.99932e-09
9.99932e-09
9.99931e-09
9.99931e-09
9.9993e-09
9.9993e-09
9.9993e-09
9.99929e-09
9.99929e-09
9.99929e-09
9.9993e-09
9.99929e-09
9.99929e-09
9.99929e-09
9.99928e-09
9.99928e-09
9.99928e-09
9.99927e-09
9.99927e-09
9.99927e-09
9.99927e-09
9.99926e-09
9.99926e-09
9.99926e-09
9.99926e-09
9.99926e-09
9.99926e-09
9.99926e-09
9.99925e-09
9.99925e-09
9.99925e-09
9.99925e-09
9.99925e-09
9.99924e-09
9.99924e-09
9.99924e-09
9.99924e-09
9.99924e-09
9.99924e-09
9.99924e-09
9.99923e-09
9.99923e-09
9.99923e-09
9.99923e-09
9.99923e-09
9.99923e-09
9.99923e-09
9.99923e-09
9.99922e-09
9.99922e-09
9.99922e-09
9.99922e-09
9.99922e-09
9.99922e-09
9.99922e-09
9.99922e-09
9.99922e-09
9.99922e-09
9.99922e-09
9.99921e-09
9.99921e-09
9.99921e-09
9.99921e-09
9.99921e-09
9.99921e-09
9.99921e-09
9.99921e-09
9.99921e-09
9.99921e-09
9.99921e-09
9.9992e-09
9.9992e-09
9.9992e-09
9.9992e-09
9.9992e-09
9.9992e-09
9.9992e-09
9.9992e-09
9.9992e-09
9.9992e-09
9.9992e-09
9.9992e-09
9.9992e-09
9.9992e-09
9.9992e-09
9.99919e-09
9.99919e-09
9.99919e-09
9.99919e-09
9.99919e-09
9.99919e-09
9.99919e-09
9.99919e-09
9.99919e-09
9.99919e-09
9.99919e-09
9.99919e-09
9.99919e-09
9.99919e-09
9.99919e-09
9.99919e-09
9.99919e-09
9.99919e-09
9.99919e-09
9.99919e-09
9.99919e-09
9.99919e-09
9.99919e-09
9.99919e-09
9.99919e-09
9.99919e-09
9.99919e-09
9.99919e-09
9.99919e-09
9.99919e-09
9.99919e-09
9.99919e-09
9.99919e-09
9.99919e-09
9.99919e-09
9.99919e-09
9.99919e-09
9.99919e-09
9.99919e-09
9.99919e-09
9.99919e-09
9.99919e-09
9.99919e-09
9.99919e-09
9.99919e-09
9.99918e-09
9.99918e-09
9.9992e-09
9.99919e-09
9.99922e-09
9.99923e-09
9.99918e-09
9.99917e-09
9.99916e-09
9.99916e-09
9.99916e-09
9.99916e-09
9.99916e-09
9.99916e-09
9.99916e-09
9.99916e-09
9.99916e-09
9.99916e-09
9.99916e-09
9.99916e-09
9.99915e-09
9.99915e-09
9.99916e-09
9.99916e-09
9.99916e-09
9.99916e-09
9.99916e-09
9.99916e-09
9.99916e-09
9.99916e-09
9.99916e-09
9.99916e-09
9.99917e-09
9.99917e-09
9.99918e-09
9.99918e-09
9.99918e-09
9.99918e-09
9.99918e-09
9.99918e-09
9.99918e-09
9.99918e-09
9.99919e-09
9.99919e-09
9.99919e-09
9.99919e-09
9.9992e-09
9.9992e-09
9.9992e-09
9.9992e-09
9.9992e-09
9.99921e-09
9.99921e-09
9.99922e-09
9.99922e-09
9.99922e-09
9.99922e-09
9.99922e-09
9.99922e-09
9.99922e-09
9.99922e-09
9.99922e-09
9.99922e-09
9.99922e-09
9.99922e-09
9.99923e-09
9.99923e-09
9.99923e-09
9.99924e-09
9.99923e-09
9.99922e-09
9.99923e-09
9.99923e-09
9.99923e-09
9.99922e-09
9.99922e-09
9.99923e-09
9.99922e-09
9.99923e-09
9.99922e-09
9.99923e-09
9.99924e-09
9.99923e-09
9.99924e-09
9.99922e-09
9.99923e-09
9.99925e-09
9.99926e-09
9.99922e-09
9.99922e-09
9.99923e-09
9.99922e-09
9.99924e-09
9.99926e-09
9.99925e-09
1.00068e-08
1.00064e-08
1.00063e-08
1.00066e-08
1.00071e-08
1.00075e-08
1.00079e-08
1.00083e-08
1.00085e-08
1.00086e-08
1.00086e-08
1.00086e-08
1.00086e-08
1.00085e-08
1.00084e-08
1.00084e-08
1.00083e-08
1.00082e-08
1.00082e-08
1.0008e-08
1.0008e-08
1.00079e-08
1.00078e-08
1.00077e-08
1.00076e-08
1.00076e-08
1.00075e-08
1.00075e-08
1.00074e-08
1.00072e-08
1.0007e-08
1.00068e-08
1.00067e-08
1.00065e-08
1.00064e-08
1.00064e-08
1.00064e-08
1.00064e-08
1.00065e-08
1.00066e-08
1.00066e-08
1.00067e-08
1.00067e-08
1.00068e-08
1.00068e-08
1.00067e-08
1.00066e-08
1.00065e-08
1.00063e-08
1.00062e-08
1.0006e-08
1.00059e-08
1.00058e-08
1.00057e-08
1.00056e-08
1.00054e-08
1.00053e-08
1.00052e-08
1.0005e-08
1.00048e-08
1.00046e-08
1.00043e-08
1.00041e-08
1.00039e-08
1.00038e-08
1.00037e-08
1.00037e-08
1.00037e-08
1.00038e-08
1.00038e-08
1.00038e-08
1.00038e-08
1.00038e-08
1.00038e-08
1.00038e-08
1.00037e-08
1.00036e-08
1.00035e-08
1.00034e-08
1.00032e-08
1.0003e-08
1.00026e-08
1.00023e-08
1.00027e-08
1.00028e-08
1.0003e-08
1.00032e-08
1.00038e-08
1.00045e-08
1.00046e-08
1.0005e-08
1.00057e-08
1.0006e-08
1.00058e-08
1.00056e-08
1.00059e-08
1.00041e-08
1.00042e-08
1.00047e-08
1.00049e-08
1.00047e-08
1.00049e-08
1.00044e-08
1.00043e-08
1.00043e-08
1.00043e-08
1.00043e-08
1.00044e-08
1.00043e-08
1.00044e-08
1.00042e-08
1.00045e-08
1.00045e-08
1.00041e-08
1.00041e-08
1.00039e-08
1.00038e-08
1.00037e-08
1.00037e-08
1.00036e-08
1.00036e-08
1.00035e-08
1.00035e-08
1.00035e-08
1.00036e-08
1.00036e-08
1.00039e-08
1.00038e-08
1.00047e-08
1.00047e-08
1.00037e-08
1.00038e-08
1.00033e-08
1.00033e-08
1.00031e-08
1.00031e-08
1.0003e-08
1.0003e-08
1.00029e-08
1.00029e-08
1.00029e-08
1.00028e-08
1.00028e-08
1.00028e-08
1.00027e-08
1.00027e-08
1.00026e-08
1.00026e-08
1.00026e-08
1.00025e-08
1.00025e-08
1.00024e-08
1.00024e-08
1.00023e-08
1.00023e-08
1.00023e-08
1.00022e-08
1.00022e-08
1.00021e-08
1.00021e-08
1.0002e-08
1.0002e-08
1.0002e-08
1.00019e-08
1.00019e-08
1.00018e-08
1.00018e-08
1.00017e-08
1.00017e-08
1.00016e-08
1.00016e-08
1.00015e-08
1.00015e-08
1.00015e-08
1.00014e-08
1.00014e-08
1.00013e-08
1.00013e-08
1.00013e-08
1.00012e-08
1.00012e-08
1.00011e-08
1.00011e-08
1.0001e-08
1.0001e-08
1.0001e-08
1.00009e-08
1.00009e-08
1.00008e-08
1.00008e-08
1.00008e-08
1.00007e-08
1.00007e-08
1.00007e-08
1.00007e-08
1.00006e-08
1.00006e-08
1.00006e-08
1.00006e-08
1.00005e-08
1.00005e-08
1.00005e-08
1.00005e-08
1.00004e-08
1.00004e-08
1.00004e-08
1.00004e-08
1.00004e-08
1.00004e-08
1.00004e-08
1.00004e-08
1.00004e-08
1.00003e-08
1.00003e-08
1.00003e-08
1.00003e-08
1.00003e-08
1.00003e-08
1.00003e-08
1.00003e-08
1.00003e-08
1.00003e-08
1.00003e-08
1.00002e-08
1.00002e-08
1.00002e-08
1.00002e-08
1.00002e-08
1.00002e-08
1.00002e-08
1.00002e-08
1.00002e-08
1.00002e-08
1.00002e-08
1.00001e-08
1.00001e-08
1.00001e-08
1.00001e-08
1.00001e-08
1.00001e-08
1.00001e-08
1.00001e-08
1.00001e-08
1e-08
1e-08
1e-08
1e-08
9.99999e-09
9.99999e-09
9.99998e-09
9.99996e-09
9.99995e-09
9.99995e-09
9.99994e-09
9.99993e-09
9.99991e-09
9.9999e-09