/*--------------------------------*- C++ -*----------------------------------*\
| =========                 |                                                 |
| \\      /  F ield         | OpenFOAM: The Open Source CFD Toolbox           |
|  \\    /   O peration     | Version:  v2006                                 |
|   \\  /    A nd           | Website:  www.openfoam.com                      |
|    \\/     M anipulation  |                                                 |
\*---------------------------------------------------------------------------*/
FoamFile
{
    version     2.0;
    format      ascii;
    class       volScalarField;
    location    "0.9";
    object      p;
}
// * * * * * * * * * * * * * * * * * * * * * * * * * * * * * * * * * * * * * //

dimensions      [1 -1 -2 0 0 0 0];


internalField   nonuniform List<scalar> 
33000
(
7689.22
7688.6
7687.77
7687
7686.28
7685.58
7684.92
7684.29
7683.69
7683.13
7682.59
7682.09
7681.63
7681.19
7680.8
7680.43
7680.11
7679.81
7679.55
7679.33
7679.14
7678.98
7678.86
7678.77
7678.71
7678.69
7678.69
7678.73
7678.8
7678.89
7679.02
7679.17
7679.35
7679.55
7679.78
7680.03
7680.31
7680.61
7680.93
7681.27
7681.63
7682
7682.4
7682.81
7683.23
7683.67
7684.12
7684.58
7685.06
7685.54
7686.04
7686.54
7687.05
7687.57
7688.09
7688.61
7689.14
7689.67
7690.21
7690.74
7691.27
7691.81
7692.35
7692.88
7693.42
7693.95
7694.48
7695.01
7695.54
7696.07
7696.59
7697.1
7697.61
7698.1
7698.58
7699.04
7699.47
7699.84
7700.23
7701.02
7701.56
7702.13
7702.74
7703.31
7703.91
7704.54
7705.15
7705.77
7706.38
7707
7707.62
7708.24
7708.86
7709.47
7710.09
7710.7
7711.31
7711.91
7712.5
7713.1
7713.71
7714.31
7714.9
7715.49
7716.07
7716.65
7717.22
7717.79
7718.36
7718.92
7719.48
7720.03
7720.58
7721.12
7721.65
7722.17
7722.69
7723.2
7723.72
7724.22
7724.72
7725.22
7725.7
7726.18
7726.65
7727.11
7727.57
7728.02
7728.47
7728.9
7729.33
7729.74
7730.15
7730.55
7730.95
7731.33
7731.7
7732.07
7732.42
7732.77
7733.11
7733.44
7733.77
7734.08
7734.39
7734.7
7734.99
7735.28
7735.57
7735.84
7736.12
7736.38
7736.64
7736.89
7737.14
7737.38
7737.62
7737.84
7738.07
7738.28
7738.49
7738.7
7738.9
7739.09
7739.28
7739.46
7739.63
7739.8
7739.97
7740.13
7740.28
7740.43
7740.58
7740.72
7740.85
7740.98
7741.11
7741.23
7741.35
7741.46
7741.57
7741.68
7741.78
7741.88
7741.97
7742.06
7742.15
7742.23
7742.31
7742.38
7742.46
7742.53
7742.59
7742.65
7742.71
7742.77
7742.83
7742.88
7742.93
7742.97
7743.02
7743.06
7743.1
7743.14
7743.17
7743.2
7743.23
7743.26
7743.29
7743.31
7743.34
7743.36
7743.38
7743.4
7743.41
7743.43
7743.44
7743.45
7743.46
7743.47
7743.48
7743.49
7743.49
7743.5
7743.5
7743.5
7743.5
7743.5
7743.5
7743.5
7743.5
7743.5
7743.49
7743.49
7743.48
7743.48
7743.47
7743.46
7743.46
7743.45
7743.44
7743.43
7743.42
7743.41
7743.4
7743.39
7743.38
7743.37
7743.36
7743.35
7743.33
7743.32
7743.31
7743.3
7743.28
7743.27
7743.26
7743.25
7743.23
7743.22
7743.21
7743.19
7743.18
7743.17
7743.15
7743.14
7743.12
7743.11
7743.1
7743.08
7743.07
7743.06
7743.04
7743.03
7743.02
7743
7742.99
7742.98
7742.96
7742.95
7742.94
7742.93
7742.91
7742.9
7742.89
7742.88
7742.86
7742.85
7742.84
7742.83
7742.82
7742.8
7742.79
7742.78
7742.77
7742.76
7742.75
7742.74
7742.73
7742.71
7742.7
7742.69
7742.68
7742.67
7742.66
7742.65
7742.64
7742.63
7742.63
7742.62
7742.61
7742.6
7742.59
7742.58
7742.57
7742.56
7742.55
7742.54
7742.54
7742.53
7742.52
7742.51
7742.5
7742.5
7742.49
7742.48
7742.47
7742.46
7742.46
7742.45
7742.44
7742.44
7742.43
7742.42
7742.42
7742.41
7742.4
7742.4
7742.39
7742.38
7742.38
7742.37
7742.36
7742.36
7742.35
7742.35
7742.34
7742.34
7742.33
7742.32
7742.32
7742.31
7742.31
7742.3
7742.3
7742.29
7742.29
7742.28
7742.28
7742.27
7742.27
7742.27
7742.26
7742.26
7742.25
7742.25
7742.24
7742.24
7742.24
7742.23
7742.23
7742.22
7742.22
7742.22
7742.21
7742.21
7742.21
7742.2
7742.2
7742.2
7742.19
7742.19
7742.19
7742.18
7742.18
7742.18
7742.17
7742.17
7742.17
7742.17
7742.16
7742.16
7742.16
7742.16
7742.15
7742.15
7742.15
7742.15
7742.14
7742.14
7742.14
7742.14
7742.14
7742.13
7742.13
7742.13
7742.13
7742.13
7742.12
7742.12
7742.12
7742.12
7742.12
7742.12
7742.11
7742.11
7742.11
7742.11
7742.11
7742.11
7742.11
7742.1
7742.1
7742.1
7742.1
7742.1
7742.1
7742.1
7742.1
7742.09
7742.09
7742.09
7742.09
7742.09
7742.09
7742.09
7742.09
7742.09
7742.09
7742.09
7742.09
7742.08
7742.08
7742.08
7742.08
7742.08
7742.08
7742.08
7742.08
7742.08
7742.08
7742.08
7742.08
7742.08
7742.08
7742.08
7742.07
7742.07
7742.07
7742.07
7742.07
7742.07
7742.07
7742.07
7742.07
7742.07
7742.07
7742.07
7742.07
7742.07
7742.07
7742.07
7742.07
7742.07
7742.07
7742.07
7742.07
7742.07
7742.07
7742.07
7742.07
7742.07
7742.07
7742.07
7742.06
7742.06
7742.06
7742.06
7742.06
7742.06
7742.06
7742.06
7742.06
7742.06
7742.06
7742.06
7742.06
7742.06
7742.06
7742.06
7742.06
7742.06
7742.06
7742.06
7742.06
7742.06
7742.06
7742.06
7742.06
7742.06
7742.06
7742.06
7742.06
7742.06
7742.06
7742.06
7742.06
7742.06
7742.06
7742.06
7742.06
7742.06
7742.06
7742.06
7742.06
7742.06
7742.06
7742.06
7742.06
7742.06
7742.06
7742.06
7742.06
7742.06
7742.06
7742.06
7742.06
7742.06
7742.06
7742.06
7742.06
7742.06
7742.06
7742.06
7742.06
7742.06
7742.06
7742.06
7742.06
7742.06
7492.92
7492.36
7491.53
7490.76
7490.02
7489.32
7488.65
7488.01
7487.41
7486.85
7486.31
7485.81
7485.35
7484.92
7484.52
7484.16
7483.84
7483.55
7483.3
7483.07
7482.89
7482.73
7482.62
7482.53
7482.48
7482.45
7482.46
7482.5
7482.57
7482.67
7482.8
7482.95
7483.13
7483.34
7483.57
7483.83
7484.11
7484.41
7484.73
7485.08
7485.44
7485.82
7486.21
7486.63
7487.05
7487.5
7487.95
7488.41
7488.89
7489.38
7489.87
7490.38
7490.89
7491.41
7491.93
7492.46
7492.99
7493.52
7494.06
7494.59
7495.13
7495.67
7496.21
7496.75
7497.28
7497.82
7498.35
7498.89
7499.42
7499.94
7500.47
7500.98
7501.5
7502
7502.49
7502.98
7503.45
7503.92
7504.4
7504.87
7505.27
7505.72
7506.59
7507.19
7507.81
7508.41
7509
7509.6
7510.2
7510.84
7511.46
7512.08
7512.7
7513.32
7513.93
7514.55
7515.16
7515.76
7516.36
7516.96
7517.56
7518.14
7518.73
7519.33
7519.92
7520.5
7521.07
7521.64
7522.21
7522.77
7523.33
7523.88
7524.43
7524.97
7525.5
7526.03
7526.55
7527.06
7527.57
7528.07
7528.56
7529.06
7529.54
7530.02
7530.49
7530.96
7531.41
7531.86
7532.31
7532.74
7533.17
7533.58
7533.99
7534.39
7534.78
7535.16
7535.54
7535.9
7536.25
7536.6
7536.94
7537.27
7537.6
7537.91
7538.22
7538.52
7538.82
7539.11
7539.39
7539.67
7539.94
7540.21
7540.47
7540.72
7540.96
7541.2
7541.44
7541.67
7541.89
7542.1
7542.31
7542.52
7542.72
7542.91
7543.09
7543.28
7543.45
7543.62
7543.79
7543.94
7544.1
7544.25
7544.39
7544.53
7544.67
7544.8
7544.92
7545.04
7545.16
7545.27
7545.38
7545.49
7545.59
7545.69
7545.78
7545.87
7545.95
7546.04
7546.11
7546.19
7546.26
7546.33
7546.4
7546.46
7546.52
7546.58
7546.63
7546.68
7546.73
7546.78
7546.82
7546.86
7546.9
7546.94
7546.97
7547.01
7547.04
7547.06
7547.09
7547.12
7547.14
7547.16
7547.18
7547.2
7547.21
7547.23
7547.24
7547.25
7547.26
7547.27
7547.28
7547.29
7547.29
7547.3
7547.3
7547.3
7547.3
7547.3
7547.3
7547.3
7547.3
7547.29
7547.29
7547.29
7547.28
7547.27
7547.27
7547.26
7547.25
7547.25
7547.24
7547.23
7547.22
7547.21
7547.2
7547.19
7547.18
7547.17
7547.16
7547.14
7547.13
7547.12
7547.11
7547.09
7547.08
7547.07
7547.06
7547.04
7547.03
7547.02
7547
7546.99
7546.98
7546.96
7546.95
7546.94
7546.92
7546.91
7546.9
7546.88
7546.87
7546.85
7546.84
7546.83
7546.81
7546.8
7546.79
7546.78
7546.76
7546.75
7546.74
7546.72
7546.71
7546.7
7546.69
7546.67
7546.66
7546.65
7546.64
7546.63
7546.61
7546.6
7546.59
7546.58
7546.57
7546.56
7546.55
7546.53
7546.52
7546.51
7546.5
7546.49
7546.48
7546.47
7546.46
7546.45
7546.44
7546.43
7546.42
7546.41
7546.4
7546.4
7546.39
7546.38
7546.37
7546.36
7546.35
7546.34
7546.33
7546.33
7546.32
7546.31
7546.3
7546.29
7546.29
7546.28
7546.27
7546.26
7546.26
7546.25
7546.24
7546.23
7546.23
7546.22
7546.21
7546.21
7546.2
7546.19
7546.19
7546.18
7546.18
7546.17
7546.16
7546.16
7546.15
7546.15
7546.14
7546.13
7546.13
7546.12
7546.12
7546.11
7546.11
7546.1
7546.1
7546.09
7546.09
7546.08
7546.08
7546.07
7546.07
7546.06
7546.06
7546.06
7546.05
7546.05
7546.04
7546.04
7546.04
7546.03
7546.03
7546.02
7546.02
7546.02
7546.01
7546.01
7546.01
7546
7546
7546
7545.99
7545.99
7545.99
7545.98
7545.98
7545.98
7545.97
7545.97
7545.97
7545.97
7545.96
7545.96
7545.96
7545.96
7545.95
7545.95
7545.95
7545.95
7545.94
7545.94
7545.94
7545.94
7545.94
7545.93
7545.93
7545.93
7545.93
7545.93
7545.92
7545.92
7545.92
7545.92
7545.92
7545.92
7545.91
7545.91
7545.91
7545.91
7545.91
7545.91
7545.91
7545.9
7545.9
7545.9
7545.9
7545.9
7545.9
7545.9
7545.9
7545.89
7545.89
7545.89
7545.89
7545.89
7545.89
7545.89
7545.89
7545.89
7545.89
7545.89
7545.89
7545.88
7545.88
7545.88
7545.88
7545.88
7545.88
7545.88
7545.88
7545.88
7545.88
7545.88
7545.88
7545.88
7545.88
7545.88
7545.87
7545.87
7545.87
7545.87
7545.87
7545.87
7545.87
7545.87
7545.87
7545.87
7545.87
7545.87
7545.87
7545.87
7545.87
7545.87
7545.87
7545.87
7545.87
7545.87
7545.87
7545.87
7545.87
7545.87
7545.87
7545.87
7545.87
7545.87
7545.87
7545.87
7545.86
7545.86
7545.86
7545.86
7545.86
7545.86
7545.86
7545.86
7545.86
7545.86
7545.86
7545.86
7545.86
7545.86
7545.86
7545.86
7545.86
7545.86
7545.86
7545.86
7545.86
7545.86
7545.86
7545.86
7545.86
7545.86
7545.86
7545.86
7545.86
7545.86
7545.86
7545.86
7545.86
7545.86
7545.86
7545.86
7545.86
7545.86
7545.86
7545.86
7545.86
7545.86
7545.86
7545.86
7545.86
7545.86
7545.86
7545.86
7545.86
7545.86
7545.86
7545.86
7545.86
7545.86
7545.86
7545.86
7545.86
7545.86
7545.86
7545.86
7545.86
7545.86
7545.86
7545.86
7296.49
7295.89
7295.07
7294.32
7293.6
7292.91
7292.24
7291.61
7291.01
7290.45
7289.92
7289.42
7288.96
7288.54
7288.15
7287.8
7287.48
7287.19
7286.94
7286.73
7286.55
7286.4
7286.29
7286.21
7286.16
7286.14
7286.16
7286.2
7286.28
7286.38
7286.51
7286.67
7286.86
7287.07
7287.31
7287.57
7287.86
7288.17
7288.5
7288.85
7289.21
7289.6
7290
7290.42
7290.85
7291.3
7291.76
7292.23
7292.71
7293.2
7293.7
7294.21
7294.73
7295.25
7295.77
7296.31
7296.84
7297.38
7297.92
7298.46
7299
7299.54
7300.09
7300.63
7301.17
7301.71
7302.25
7302.79
7303.32
7303.85
7304.38
7304.9
7305.42
7305.93
7306.44
7306.94
7307.44
7307.94
7308.44
7308.95
7309.47
7309.99
7310.49
7310.92
7311.4
7312.29
7312.91
7313.56
7314.14
7314.74
7315.33
7315.94
7316.57
7317.19
7317.81
7318.42
7319.03
7319.64
7320.25
7320.85
7321.45
7322.04
7322.63
7323.21
7323.79
7324.37
7324.95
7325.53
7326.09
7326.66
7327.21
7327.77
7328.31
7328.85
7329.39
7329.91
7330.43
7330.95
7331.45
7331.95
7332.45
7332.94
7333.42
7333.89
7334.37
7334.83
7335.29
7335.74
7336.18
7336.61
7337.03
7337.45
7337.86
7338.25
7338.64
7339.02
7339.39
7339.76
7340.11
7340.46
7340.8
7341.13
7341.45
7341.76
7342.07
7342.38
7342.67
7342.96
7343.24
7343.52
7343.79
7344.05
7344.31
7344.56
7344.81
7345.05
7345.28
7345.51
7345.73
7345.94
7346.15
7346.35
7346.55
7346.74
7346.93
7347.11
7347.28
7347.45
7347.62
7347.77
7347.93
7348.08
7348.22
7348.36
7348.49
7348.62
7348.75
7348.87
7348.98
7349.1
7349.2
7349.31
7349.41
7349.5
7349.6
7349.68
7349.77
7349.85
7349.93
7350
7350.08
7350.14
7350.21
7350.27
7350.33
7350.39
7350.44
7350.49
7350.54
7350.59
7350.63
7350.67
7350.71
7350.75
7350.78
7350.81
7350.84
7350.87
7350.9
7350.92
7350.94
7350.96
7350.98
7351
7351.01
7351.03
7351.04
7351.05
7351.06
7351.07
7351.08
7351.09
7351.09
7351.1
7351.1
7351.1
7351.1
7351.1
7351.1
7351.1
7351.1
7351.09
7351.09
7351.08
7351.08
7351.07
7351.07
7351.06
7351.05
7351.04
7351.04
7351.03
7351.02
7351.01
7351
7350.99
7350.98
7350.96
7350.95
7350.94
7350.93
7350.92
7350.9
7350.89
7350.88
7350.87
7350.85
7350.84
7350.83
7350.81
7350.8
7350.79
7350.77
7350.76
7350.75
7350.73
7350.72
7350.71
7350.69
7350.68
7350.67
7350.65
7350.64
7350.63
7350.61
7350.6
7350.59
7350.57
7350.56
7350.55
7350.53
7350.52
7350.51
7350.5
7350.48
7350.47
7350.46
7350.45
7350.43
7350.42
7350.41
7350.4
7350.39
7350.38
7350.37
7350.35
7350.34
7350.33
7350.32
7350.31
7350.3
7350.29
7350.28
7350.27
7350.26
7350.25
7350.24
7350.23
7350.22
7350.21
7350.2
7350.19
7350.18
7350.18
7350.17
7350.16
7350.15
7350.14
7350.13
7350.12
7350.12
7350.11
7350.1
7350.09
7350.08
7350.08
7350.07
7350.06
7350.05
7350.05
7350.04
7350.03
7350.03
7350.02
7350.01
7350.01
7350
7349.99
7349.99
7349.98
7349.97
7349.97
7349.96
7349.96
7349.95
7349.94
7349.94
7349.93
7349.93
7349.92
7349.92
7349.91
7349.91
7349.9
7349.9
7349.89
7349.89
7349.88
7349.88
7349.87
7349.87
7349.86
7349.86
7349.85
7349.85
7349.85
7349.84
7349.84
7349.83
7349.83
7349.83
7349.82
7349.82
7349.82
7349.81
7349.81
7349.8
7349.8
7349.8
7349.79
7349.79
7349.79
7349.79
7349.78
7349.78
7349.78
7349.77
7349.77
7349.77
7349.77
7349.76
7349.76
7349.76
7349.75
7349.75
7349.75
7349.75
7349.75
7349.74
7349.74
7349.74
7349.74
7349.73
7349.73
7349.73
7349.73
7349.73
7349.73
7349.72
7349.72
7349.72
7349.72
7349.72
7349.72
7349.71
7349.71
7349.71
7349.71
7349.71
7349.71
7349.71
7349.7
7349.7
7349.7
7349.7
7349.7
7349.7
7349.7
7349.7
7349.69
7349.69
7349.69
7349.69
7349.69
7349.69
7349.69
7349.69
7349.69
7349.69
7349.69
7349.69
7349.68
7349.68
7349.68
7349.68
7349.68
7349.68
7349.68
7349.68
7349.68
7349.68
7349.68
7349.68
7349.68
7349.68
7349.68
7349.67
7349.67
7349.67
7349.67
7349.67
7349.67
7349.67
7349.67
7349.67
7349.67
7349.67
7349.67
7349.67
7349.67
7349.67
7349.67
7349.67
7349.67
7349.67
7349.67
7349.67
7349.67
7349.67
7349.67
7349.67
7349.67
7349.67
7349.67
7349.67
7349.67
7349.67
7349.66
7349.66
7349.66
7349.66
7349.66
7349.66
7349.66
7349.66
7349.66
7349.66
7349.66
7349.66
7349.66
7349.66
7349.66
7349.66
7349.66
7349.66
7349.66
7349.66
7349.66
7349.66
7349.66
7349.66
7349.66
7349.66
7349.66
7349.66
7349.66
7349.66
7349.66
7349.66
7349.66
7349.66
7349.66
7349.66
7349.66
7349.66
7349.66
7349.66
7349.66
7349.66
7349.66
7349.66
7349.66
7349.66
7349.66
7349.66
7349.66
7349.66
7349.66
7349.66
7349.66
7349.66
7349.66
7349.66
7349.66
7349.66
7349.66
7349.66
7349.66
7349.66
7349.66
7100.1
7099.51
7098.68
7097.91
7097.18
7096.47
7095.8
7095.16
7094.56
7093.99
7093.46
7092.96
7092.5
7092.08
7091.69
7091.34
7091.02
7090.74
7090.5
7090.28
7090.11
7089.96
7089.86
7089.78
7089.74
7089.73
7089.75
7089.8
7089.89
7090
7090.14
7090.3
7090.5
7090.72
7090.96
7091.23
7091.52
7091.84
7092.17
7092.53
7092.9
7093.29
7093.7
7094.12
7094.56
7095.02
7095.48
7095.96
7096.45
7096.95
7097.45
7097.97
7098.49
7099.02
7099.55
7100.09
7100.63
7101.18
7101.73
7102.28
7102.83
7103.38
7103.93
7104.48
7105.03
7105.58
7106.12
7106.67
7107.21
7107.75
7108.28
7108.82
7109.34
7109.87
7110.39
7110.91
7111.43
7111.95
7112.47
7113
7113.52
7114.06
7114.6
7115.15
7115.72
7116.28
7116.79
7117.23
7117.72
7118.6
7119.22
7119.84
7120.46
7121.06
7121.68
7122.31
7122.93
7123.54
7124.15
7124.75
7125.35
7125.94
7126.54
7127.12
7127.71
7128.29
7128.86
7129.43
7129.99
7130.56
7131.12
7131.68
7132.22
7132.76
7133.29
7133.82
7134.34
7134.85
7135.36
7135.86
7136.36
7136.85
7137.33
7137.8
7138.27
7138.73
7139.18
7139.63
7140.07
7140.5
7140.92
7141.34
7141.74
7142.14
7142.53
7142.9
7143.27
7143.64
7143.99
7144.33
7144.67
7145
7145.32
7145.64
7145.95
7146.25
7146.54
7146.83
7147.11
7147.39
7147.66
7147.92
7148.17
7148.42
7148.67
7148.91
7149.14
7149.36
7149.58
7149.8
7150
7150.21
7150.4
7150.59
7150.78
7150.95
7151.13
7151.3
7151.46
7151.62
7151.77
7151.92
7152.06
7152.2
7152.33
7152.46
7152.58
7152.7
7152.82
7152.93
7153.03
7153.14
7153.24
7153.33
7153.42
7153.51
7153.59
7153.67
7153.75
7153.83
7153.9
7153.96
7154.03
7154.09
7154.15
7154.2
7154.26
7154.31
7154.35
7154.4
7154.44
7154.48
7154.52
7154.56
7154.59
7154.62
7154.65
7154.68
7154.7
7154.73
7154.75
7154.77
7154.79
7154.8
7154.82
7154.83
7154.85
7154.86
7154.87
7154.87
7154.88
7154.89
7154.89
7154.9
7154.9
7154.9
7154.9
7154.9
7154.9
7154.9
7154.9
7154.89
7154.89
7154.88
7154.88
7154.87
7154.87
7154.86
7154.85
7154.84
7154.83
7154.82
7154.81
7154.8
7154.79
7154.78
7154.77
7154.76
7154.75
7154.74
7154.73
7154.71
7154.7
7154.69
7154.68
7154.66
7154.65
7154.64
7154.62
7154.61
7154.6
7154.58
7154.57
7154.56
7154.54
7154.53
7154.52
7154.5
7154.49
7154.48
7154.46
7154.45
7154.44
7154.42
7154.41
7154.4
7154.38
7154.37
7154.36
7154.34
7154.33
7154.32
7154.31
7154.29
7154.28
7154.27
7154.26
7154.24
7154.23
7154.22
7154.21
7154.2
7154.19
7154.17
7154.16
7154.15
7154.14
7154.13
7154.12
7154.11
7154.1
7154.09
7154.08
7154.07
7154.06
7154.05
7154.04
7154.03
7154.02
7154.01
7154
7153.99
7153.98
7153.97
7153.96
7153.96
7153.95
7153.94
7153.93
7153.92
7153.91
7153.91
7153.9
7153.89
7153.88
7153.87
7153.87
7153.86
7153.85
7153.84
7153.84
7153.83
7153.82
7153.82
7153.81
7153.8
7153.8
7153.79
7153.78
7153.78
7153.77
7153.77
7153.76
7153.75
7153.75
7153.74
7153.74
7153.73
7153.73
7153.72
7153.72
7153.71
7153.71
7153.7
7153.7
7153.69
7153.69
7153.68
7153.68
7153.67
7153.67
7153.66
7153.66
7153.65
7153.65
7153.65
7153.64
7153.64
7153.63
7153.63
7153.63
7153.62
7153.62
7153.61
7153.61
7153.61
7153.6
7153.6
7153.6
7153.59
7153.59
7153.59
7153.58
7153.58
7153.58
7153.58
7153.57
7153.57
7153.57
7153.56
7153.56
7153.56
7153.56
7153.55
7153.55
7153.55
7153.55
7153.54
7153.54
7153.54
7153.54
7153.54
7153.53
7153.53
7153.53
7153.53
7153.53
7153.52
7153.52
7153.52
7153.52
7153.52
7153.52
7153.51
7153.51
7153.51
7153.51
7153.51
7153.51
7153.51
7153.5
7153.5
7153.5
7153.5
7153.5
7153.5
7153.5
7153.5
7153.5
7153.49
7153.49
7153.49
7153.49
7153.49
7153.49
7153.49
7153.49
7153.49
7153.49
7153.49
7153.48
7153.48
7153.48
7153.48
7153.48
7153.48
7153.48
7153.48
7153.48
7153.48
7153.48
7153.48
7153.48
7153.48
7153.48
7153.48
7153.47
7153.47
7153.47
7153.47
7153.47
7153.47
7153.47
7153.47
7153.47
7153.47
7153.47
7153.47
7153.47
7153.47
7153.47
7153.47
7153.47
7153.47
7153.47
7153.47
7153.47
7153.47
7153.47
7153.47
7153.47
7153.47
7153.47
7153.47
7153.47
7153.47
7153.47
7153.47
7153.46
7153.46
7153.46
7153.46
7153.46
7153.46
7153.46
7153.46
7153.46
7153.46
7153.46
7153.46
7153.46
7153.46
7153.46
7153.46
7153.46
7153.46
7153.46
7153.46
7153.46
7153.46
7153.46
7153.46
7153.46
7153.46
7153.46
7153.46
7153.46
7153.46
7153.46
7153.46
7153.46
7153.46
7153.46
7153.46
7153.46
7153.46
7153.46
7153.46
7153.46
7153.46
7153.46
7153.46
7153.46
7153.46
7153.46
7153.46
7153.46
7153.46
7153.46
7153.46
7153.46
7153.46
7153.46
7153.46
7153.46
7153.46
7153.46
7153.46
7153.46
7153.46
6903.59
6902.99
6902.16
6901.39
6900.65
6899.94
6899.26
6898.62
6898.01
6897.44
6896.9
6896.4
6895.94
6895.52
6895.13
6894.78
6894.47
6894.19
6893.94
6893.74
6893.56
6893.42
6893.32
6893.25
6893.21
6893.21
6893.24
6893.3
6893.39
6893.5
6893.65
6893.83
6894.03
6894.25
6894.51
6894.78
6895.08
6895.4
6895.74
6896.1
6896.48
6896.88
6897.29
6897.73
6898.17
6898.63
6899.11
6899.59
6900.09
6900.6
6901.11
6901.64
6902.17
6902.71
6903.25
6903.8
6904.36
6904.91
6905.47
6906.03
6906.6
6907.16
6907.72
6908.29
6908.85
6909.41
6909.97
6910.52
6911.08
6911.63
6912.18
6912.72
6913.26
6913.8
6914.34
6914.88
6915.42
6915.95
6916.49
6917.03
6917.57
6918.12
6918.66
6919.21
6919.77
6920.33
6920.88
6921.43
6921.99
6922.52
6922.97
6923.47
6924.36
6924.99
6925.6
6926.22
6926.82
6927.43
6928.05
6928.66
6929.26
6929.86
6930.46
6931.05
6931.63
6932.22
6932.8
6933.37
6933.94
6934.5
6935.06
6935.6
6936.15
6936.69
6937.22
6937.75
6938.27
6938.78
6939.29
6939.79
6940.29
6940.77
6941.26
6941.73
6942.2
6942.66
6943.11
6943.55
6943.99
6944.42
6944.84
6945.25
6945.65
6946.04
6946.43
6946.81
6947.17
6947.53
6947.89
6948.23
6948.57
6948.9
6949.22
6949.53
6949.84
6950.14
6950.43
6950.72
6951
6951.27
6951.54
6951.8
6952.05
6952.3
6952.55
6952.78
6953.01
6953.24
6953.45
6953.66
6953.87
6954.07
6954.27
6954.45
6954.64
6954.81
6954.99
6955.15
6955.31
6955.47
6955.62
6955.77
6955.91
6956.04
6956.18
6956.3
6956.43
6956.54
6956.66
6956.77
6956.87
6956.97
6957.07
6957.17
6957.26
6957.34
6957.43
6957.5
6957.58
6957.65
6957.72
6957.79
6957.85
6957.91
6957.97
6958.03
6958.08
6958.13
6958.17
6958.22
6958.26
6958.3
6958.34
6958.37
6958.4
6958.43
6958.46
6958.49
6958.51
6958.54
6958.56
6958.58
6958.6
6958.61
6958.63
6958.64
6958.65
6958.66
6958.67
6958.68
6958.69
6958.69
6958.7
6958.7
6958.7
6958.7
6958.7
6958.7
6958.7
6958.7
6958.7
6958.69
6958.69
6958.68
6958.68
6958.67
6958.66
6958.66
6958.65
6958.64
6958.63
6958.62
6958.61
6958.6
6958.59
6958.58
6958.57
6958.56
6958.55
6958.54
6958.52
6958.51
6958.5
6958.49
6958.47
6958.46
6958.45
6958.43
6958.42
6958.41
6958.39
6958.38
6958.37
6958.35
6958.34
6958.33
6958.31
6958.3
6958.29
6958.27
6958.26
6958.25
6958.23
6958.22
6958.21
6958.19
6958.18
6958.17
6958.15
6958.14
6958.13
6958.11
6958.1
6958.09
6958.08
6958.06
6958.05
6958.04
6958.03
6958.02
6958.01
6957.99
6957.98
6957.97
6957.96
6957.95
6957.94
6957.93
6957.92
6957.91
6957.9
6957.88
6957.87
6957.86
6957.85
6957.84
6957.83
6957.83
6957.82
6957.81
6957.8
6957.79
6957.78
6957.77
6957.76
6957.75
6957.74
6957.74
6957.73
6957.72
6957.71
6957.7
6957.69
6957.69
6957.68
6957.67
6957.66
6957.66
6957.65
6957.64
6957.64
6957.63
6957.62
6957.61
6957.61
6957.6
6957.6
6957.59
6957.58
6957.58
6957.57
6957.56
6957.56
6957.55
6957.55
6957.54
6957.54
6957.53
6957.52
6957.52
6957.51
6957.51
6957.5
6957.5
6957.49
6957.49
6957.48
6957.48
6957.47
6957.47
6957.47
6957.46
6957.46
6957.45
6957.45
6957.44
6957.44
6957.44
6957.43
6957.43
6957.42
6957.42
6957.42
6957.41
6957.41
6957.41
6957.4
6957.4
6957.4
6957.39
6957.39
6957.39
6957.38
6957.38
6957.38
6957.37
6957.37
6957.37
6957.37
6957.36
6957.36
6957.36
6957.36
6957.35
6957.35
6957.35
6957.35
6957.34
6957.34
6957.34
6957.34
6957.34
6957.33
6957.33
6957.33
6957.33
6957.33
6957.32
6957.32
6957.32
6957.32
6957.32
6957.32
6957.31
6957.31
6957.31
6957.31
6957.31
6957.31
6957.31
6957.3
6957.3
6957.3
6957.3
6957.3
6957.3
6957.3
6957.3
6957.3
6957.29
6957.29
6957.29
6957.29
6957.29
6957.29
6957.29
6957.29
6957.29
6957.29
6957.29
6957.28
6957.28
6957.28
6957.28
6957.28
6957.28
6957.28
6957.28
6957.28
6957.28
6957.28
6957.28
6957.28
6957.28
6957.28
6957.28
6957.27
6957.27
6957.27
6957.27
6957.27
6957.27
6957.27
6957.27
6957.27
6957.27
6957.27
6957.27
6957.27
6957.27
6957.27
6957.27
6957.27
6957.27
6957.27
6957.27
6957.27
6957.27
6957.27
6957.27
6957.27
6957.27
6957.27
6957.27
6957.27
6957.27
6957.27
6957.27
6957.27
6957.26
6957.26
6957.26
6957.26
6957.26
6957.26
6957.26
6957.26
6957.26
6957.26
6957.26
6957.26
6957.26
6957.26
6957.26
6957.26
6957.26
6957.26
6957.26
6957.26
6957.26
6957.26
6957.26
6957.26
6957.26
6957.26
6957.26
6957.26
6957.26
6957.26
6957.26
6957.26
6957.26
6957.26
6957.26
6957.26
6957.26
6957.26
6957.26
6957.26
6957.26
6957.26
6957.26
6957.26
6957.26
6957.26
6957.26
6957.26
6957.26
6957.26
6957.26
6957.26
6957.26
6957.26
6957.26
6957.26
6957.26
6957.26
6957.26
6957.26
6957.26
6707.06
6706.44
6705.6
6704.81
6704.06
6703.34
6702.65
6702
6701.39
6700.81
6700.27
6699.77
6699.3
6698.87
6698.49
6698.13
6697.82
6697.54
6697.3
6697.09
6696.92
6696.79
6696.69
6696.62
6696.59
6696.59
6696.63
6696.69
6696.78
6696.91
6697.06
6697.25
6697.46
6697.69
6697.95
6698.24
6698.54
6698.87
6699.22
6699.59
6699.98
6700.38
6700.81
6701.25
6701.7
6702.17
6702.66
6703.15
6703.66
6704.18
6704.71
6705.25
6705.79
6706.35
6706.91
6707.47
6708.04
6708.61
6709.18
6709.76
6710.34
6710.92
6711.49
6712.07
6712.65
6713.22
6713.8
6714.37
6714.94
6715.5
6716.06
6716.62
6717.18
6717.74
6718.29
6718.84
6719.4
6719.95
6720.5
6721.05
6721.61
6722.17
6722.72
6723.28
6723.84
6724.4
6724.96
6725.51
6726.07
6726.63
6727.19
6727.75
6728.29
6728.75
6729.26
6730.15
6730.77
6731.37
6731.99
6732.58
6733.18
6733.8
6734.4
6734.99
6735.59
6736.17
6736.75
6737.33
6737.9
6738.46
6739.02
6739.57
6740.11
6740.65
6741.17
6741.7
6742.22
6742.74
6743.24
6743.75
6744.24
6744.73
6745.21
6745.68
6746.15
6746.61
6747.06
6747.5
6747.93
6748.36
6748.78
6749.18
6749.58
6749.97
6750.36
6750.73
6751.1
6751.46
6751.81
6752.15
6752.48
6752.81
6753.13
6753.44
6753.75
6754.05
6754.34
6754.63
6754.91
6755.18
6755.44
6755.7
6755.95
6756.2
6756.44
6756.67
6756.9
6757.12
6757.34
6757.55
6757.75
6757.95
6758.14
6758.33
6758.51
6758.69
6758.86
6759.02
6759.18
6759.34
6759.49
6759.63
6759.77
6759.9
6760.03
6760.16
6760.28
6760.4
6760.51
6760.62
6760.72
6760.82
6760.92
6761.01
6761.1
6761.18
6761.26
6761.34
6761.42
6761.49
6761.56
6761.62
6761.68
6761.74
6761.8
6761.85
6761.9
6761.95
6762
6762.04
6762.08
6762.12
6762.16
6762.19
6762.22
6762.25
6762.28
6762.31
6762.33
6762.35
6762.37
6762.39
6762.41
6762.42
6762.44
6762.45
6762.46
6762.47
6762.48
6762.49
6762.49
6762.5
6762.5
6762.5
6762.51
6762.51
6762.51
6762.51
6762.5
6762.5
6762.5
6762.49
6762.49
6762.48
6762.48
6762.47
6762.46
6762.46
6762.45
6762.44
6762.43
6762.42
6762.41
6762.4
6762.39
6762.38
6762.37
6762.36
6762.34
6762.33
6762.32
6762.31
6762.29
6762.28
6762.27
6762.26
6762.24
6762.23
6762.22
6762.2
6762.19
6762.18
6762.16
6762.15
6762.14
6762.12
6762.11
6762.09
6762.08
6762.07
6762.05
6762.04
6762.03
6762.01
6762
6761.99
6761.97
6761.96
6761.95
6761.94
6761.92
6761.91
6761.9
6761.89
6761.87
6761.86
6761.85
6761.84
6761.82
6761.81
6761.8
6761.79
6761.78
6761.77
6761.76
6761.74
6761.73
6761.72
6761.71
6761.7
6761.69
6761.68
6761.67
6761.66
6761.65
6761.64
6761.63
6761.62
6761.61
6761.6
6761.59
6761.58
6761.58
6761.57
6761.56
6761.55
6761.54
6761.53
6761.52
6761.52
6761.51
6761.5
6761.49
6761.48
6761.48
6761.47
6761.46
6761.45
6761.45
6761.44
6761.43
6761.43
6761.42
6761.41
6761.41
6761.4
6761.39
6761.39
6761.38
6761.37
6761.37
6761.36
6761.36
6761.35
6761.34
6761.34
6761.33
6761.33
6761.32
6761.32
6761.31
6761.31
6761.3
6761.3
6761.29
6761.29
6761.28
6761.28
6761.27
6761.27
6761.26
6761.26
6761.25
6761.25
6761.25
6761.24
6761.24
6761.23
6761.23
6761.23
6761.22
6761.22
6761.22
6761.21
6761.21
6761.2
6761.2
6761.2
6761.19
6761.19
6761.19
6761.19
6761.18
6761.18
6761.18
6761.17
6761.17
6761.17
6761.17
6761.16
6761.16
6761.16
6761.15
6761.15
6761.15
6761.15
6761.15
6761.14
6761.14
6761.14
6761.14
6761.13
6761.13
6761.13
6761.13
6761.13
6761.13
6761.12
6761.12
6761.12
6761.12
6761.12
6761.12
6761.11
6761.11
6761.11
6761.11
6761.11
6761.11
6761.11
6761.1
6761.1
6761.1
6761.1
6761.1
6761.1
6761.1
6761.1
6761.09
6761.09
6761.09
6761.09
6761.09
6761.09
6761.09
6761.09
6761.09
6761.09
6761.09
6761.09
6761.08
6761.08
6761.08
6761.08
6761.08
6761.08
6761.08
6761.08
6761.08
6761.08
6761.08
6761.08
6761.08
6761.08
6761.08
6761.08
6761.07
6761.07
6761.07
6761.07
6761.07
6761.07
6761.07
6761.07
6761.07
6761.07
6761.07
6761.07
6761.07
6761.07
6761.07
6761.07
6761.07
6761.07
6761.07
6761.07
6761.07
6761.07
6761.07
6761.07
6761.07
6761.07
6761.07
6761.07
6761.07
6761.07
6761.07
6761.07
6761.07
6761.06
6761.06
6761.06
6761.06
6761.06
6761.06
6761.06
6761.06
6761.06
6761.06
6761.06
6761.06
6761.06
6761.06
6761.06
6761.06
6761.06
6761.06
6761.06
6761.06
6761.06
6761.06
6761.06
6761.06
6761.06
6761.06
6761.06
6761.06
6761.06
6761.06
6761.06
6761.06
6761.06
6761.06
6761.06
6761.06
6761.06
6761.06
6761.06
6761.06
6761.06
6761.06
6761.06
6761.06
6761.06
6761.06
6761.06
6761.06
6761.06
6761.06
6761.06
6761.06
6761.06
6761.06
6761.06
6761.06
6761.06
6761.06
6761.06
6761.06
6761.06
6510.46
6509.83
6508.98
6508.17
6507.41
6506.67
6505.98
6505.32
6504.69
6504.11
6503.56
6503.06
6502.59
6502.16
6501.77
6501.41
6501.1
6500.82
6500.58
6500.37
6500.2
6500.07
6499.98
6499.92
6499.89
6499.9
6499.94
6500.01
6500.11
6500.24
6500.41
6500.6
6500.82
6501.06
6501.34
6501.63
6501.95
6502.29
6502.65
6503.03
6503.44
6503.86
6504.29
6504.75
6505.22
6505.7
6506.2
6506.71
6507.23
6507.77
6508.31
6508.87
6509.43
6510
6510.58
6511.16
6511.74
6512.33
6512.92
6513.51
6514.1
6514.69
6515.29
6515.88
6516.47
6517.06
6517.65
6518.24
6518.82
6519.4
6519.98
6520.55
6521.13
6521.7
6522.27
6522.83
6523.4
6523.97
6524.53
6525.1
6525.66
6526.23
6526.8
6527.36
6527.93
6528.49
6529.06
6529.62
6530.18
6530.75
6531.31
6531.87
6532.44
6533
6533.57
6534.11
6534.58
6535.09
6535.97
6536.58
6537.17
6537.78
6538.37
6538.96
6539.57
6540.16
6540.75
6541.33
6541.89
6542.46
6543.01
6543.56
6544.1
6544.64
6545.17
6545.69
6546.21
6546.72
6547.23
6547.73
6548.23
6548.71
6549.2
6549.67
6550.13
6550.59
6551.04
6551.48
6551.91
6552.33
6552.74
6553.15
6553.54
6553.93
6554.31
6554.68
6555.04
6555.4
6555.75
6556.09
6556.43
6556.75
6557.07
6557.38
6557.69
6557.98
6558.27
6558.56
6558.83
6559.1
6559.37
6559.62
6559.87
6560.12
6560.35
6560.58
6560.81
6561.03
6561.24
6561.45
6561.65
6561.85
6562.04
6562.22
6562.4
6562.57
6562.74
6562.91
6563.06
6563.22
6563.36
6563.5
6563.64
6563.77
6563.9
6564.03
6564.15
6564.26
6564.37
6564.48
6564.58
6564.68
6564.77
6564.86
6564.95
6565.03
6565.11
6565.19
6565.26
6565.33
6565.4
6565.46
6565.52
6565.58
6565.64
6565.69
6565.74
6565.78
6565.83
6565.87
6565.91
6565.95
6565.98
6566.01
6566.05
6566.07
6566.1
6566.13
6566.15
6566.17
6566.19
6566.21
6566.22
6566.24
6566.25
6566.26
6566.27
6566.28
6566.29
6566.3
6566.3
6566.3
6566.31
6566.31
6566.31
6566.31
6566.31
6566.31
6566.31
6566.3
6566.3
6566.3
6566.29
6566.29
6566.28
6566.27
6566.26
6566.26
6566.25
6566.24
6566.23
6566.22
6566.21
6566.2
6566.19
6566.18
6566.16
6566.15
6566.14
6566.13
6566.12
6566.1
6566.09
6566.08
6566.06
6566.05
6566.04
6566.03
6566.01
6566
6565.98
6565.97
6565.96
6565.94
6565.93
6565.92
6565.9
6565.89
6565.88
6565.86
6565.85
6565.84
6565.82
6565.81
6565.8
6565.78
6565.77
6565.76
6565.74
6565.73
6565.72
6565.71
6565.69
6565.68
6565.67
6565.66
6565.64
6565.63
6565.62
6565.61
6565.6
6565.59
6565.57
6565.56
6565.55
6565.54
6565.53
6565.52
6565.51
6565.5
6565.49
6565.48
6565.47
6565.46
6565.45
6565.44
6565.43
6565.42
6565.41
6565.4
6565.39
6565.38
6565.37
6565.36
6565.35
6565.35
6565.34
6565.33
6565.32
6565.31
6565.3
6565.3
6565.29
6565.28
6565.27
6565.27
6565.26
6565.25
6565.24
6565.24
6565.23
6565.22
6565.22
6565.21
6565.2
6565.2
6565.19
6565.18
6565.18
6565.17
6565.17
6565.16
6565.15
6565.15
6565.14
6565.14
6565.13
6565.13
6565.12
6565.11
6565.11
6565.1
6565.1
6565.09
6565.09
6565.08
6565.08
6565.08
6565.07
6565.07
6565.06
6565.06
6565.05
6565.05
6565.04
6565.04
6565.04
6565.03
6565.03
6565.02
6565.02
6565.02
6565.01
6565.01
6565.01
6565
6565
6565
6564.99
6564.99
6564.99
6564.98
6564.98
6564.98
6564.97
6564.97
6564.97
6564.97
6564.96
6564.96
6564.96
6564.96
6564.95
6564.95
6564.95
6564.95
6564.94
6564.94