/*--------------------------------*- C++ -*----------------------------------*\
| =========                 |                                                 |
| \\      /  F ield         | OpenFOAM: The Open Source CFD Toolbox           |
|  \\    /   O peration     | Version:  v2006                                 |
|   \\  /    A nd           | Website:  www.openfoam.com                      |
|    \\/     M anipulation  |                                                 |
\*---------------------------------------------------------------------------*/
FoamFile
{
    version     2.0;
    format      ascii;
    class       volScalarField;
    location    "0.9";
    object      p_rgh;
}
// * * * * * * * * * * * * * * * * * * * * * * * * * * * * * * * * * * * * * //

dimensions      [1 -1 -2 0 0 0 0];


internalField   nonuniform List<scalar> 
33000
(
7787.33
7786.64
7785.82
7785.06
7784.34
7783.65
7783
7782.38
7781.78
7781.22
7780.68
7780.19
7779.72
7779.29
7778.89
7778.53
7778.2
7777.91
7777.65
7777.42
7777.23
7777.07
7776.95
7776.86
7776.8
7776.77
7776.78
7776.81
7776.88
7776.98
7777.1
7777.25
7777.43
7777.63
7777.86
7778.12
7778.39
7778.69
7779.01
7779.35
7779.71
7780.08
7780.48
7780.89
7781.31
7781.75
7782.2
7782.67
7783.14
7783.63
7784.12
7784.62
7785.14
7785.65
7786.17
7786.7
7787.23
7787.76
7788.29
7788.82
7789.36
7789.89
7790.43
7790.96
7791.5
7792.03
7792.56
7793.1
7793.62
7794.15
7794.67
7795.18
7795.69
7796.18
7796.67
7797.13
7797.55
7797.92
7798.3
7799.1
7799.64
7800.21
7800.82
7801.4
7801.99
7802.63
7803.24
7803.86
7804.47
7805.09
7805.7
7806.32
7806.94
7807.56
7808.18
7808.79
7809.4
7810
7810.59
7811.19
7811.8
7812.4
7812.99
7813.58
7814.16
7814.74
7815.31
7815.88
7816.45
7817.01
7817.57
7818.12
7818.67
7819.21
7819.74
7820.26
7820.78
7821.29
7821.81
7822.32
7822.81
7823.31
7823.79
7824.27
7824.74
7825.21
7825.67
7826.12
7826.56
7826.99
7827.42
7827.84
7828.25
7828.65
7829.04
7829.42
7829.8
7830.16
7830.52
7830.87
7831.21
7831.54
7831.86
7832.18
7832.49
7832.79
7833.09
7833.38
7833.66
7833.94
7834.21
7834.48
7834.74
7834.99
7835.24
7835.48
7835.71
7835.94
7836.17
7836.38
7836.59
7836.8
7837
7837.19
7837.38
7837.56
7837.73
7837.9
7838.07
7838.23
7838.38
7838.53
7838.68
7838.82
7838.95
7839.08
7839.21
7839.33
7839.45
7839.56
7839.67
7839.78
7839.88
7839.98
7840.07
7840.16
7840.25
7840.33
7840.41
7840.48
7840.56
7840.63
7840.69
7840.76
7840.82
7840.87
7840.93
7840.98
7841.03
7841.07
7841.12
7841.16
7841.2
7841.24
7841.27
7841.3
7841.34
7841.36
7841.39
7841.42
7841.44
7841.46
7841.48
7841.5
7841.51
7841.53
7841.54
7841.55
7841.56
7841.57
7841.58
7841.59
7841.59
7841.6
7841.6
7841.6
7841.6
7841.6
7841.6
7841.6
7841.6
7841.6
7841.59
7841.59
7841.58
7841.58
7841.57
7841.56
7841.56
7841.55
7841.54
7841.53
7841.52
7841.51
7841.5
7841.49
7841.48
7841.47
7841.46
7841.45
7841.43
7841.42
7841.41
7841.4
7841.38
7841.37
7841.36
7841.35
7841.33
7841.32
7841.31
7841.29
7841.28
7841.27
7841.25
7841.24
7841.23
7841.21
7841.2
7841.18
7841.17
7841.16
7841.14
7841.13
7841.12
7841.1
7841.09
7841.08
7841.06
7841.05
7841.04
7841.03
7841.01
7841
7840.99
7840.98
7840.96
7840.95
7840.94
7840.93
7840.92
7840.9
7840.89
7840.88
7840.87
7840.86
7840.85
7840.84
7840.83
7840.82
7840.8
7840.79
7840.78
7840.77
7840.76
7840.75
7840.74
7840.73
7840.73
7840.72
7840.71
7840.7
7840.69
7840.68
7840.67
7840.66
7840.65
7840.64
7840.64
7840.63
7840.62
7840.61
7840.6
7840.6
7840.59
7840.58
7840.57
7840.57
7840.56
7840.55
7840.54
7840.54
7840.53
7840.52
7840.52
7840.51
7840.5
7840.5
7840.49
7840.48
7840.48
7840.47
7840.47
7840.46
7840.45
7840.45
7840.44
7840.44
7840.43
7840.43
7840.42
7840.41
7840.41
7840.4
7840.4
7840.39
7840.39
7840.38
7840.38
7840.37
7840.37
7840.37
7840.36
7840.36
7840.35
7840.35
7840.34
7840.34
7840.34
7840.33
7840.33
7840.32
7840.32
7840.32
7840.31
7840.31
7840.31
7840.3
7840.3
7840.3
7840.29
7840.29
7840.29
7840.28
7840.28
7840.28
7840.27
7840.27
7840.27
7840.27
7840.26
7840.26
7840.26
7840.26
7840.25
7840.25
7840.25
7840.25
7840.24
7840.24
7840.24
7840.24
7840.24
7840.23
7840.23
7840.23
7840.23
7840.23
7840.22
7840.22
7840.22
7840.22
7840.22
7840.22
7840.21
7840.21
7840.21
7840.21
7840.21
7840.21
7840.21
7840.2
7840.2
7840.2
7840.2
7840.2
7840.2
7840.2
7840.2
7840.19
7840.19
7840.19
7840.19
7840.19
7840.19
7840.19
7840.19
7840.19
7840.19
7840.19
7840.19
7840.18
7840.18
7840.18
7840.18
7840.18
7840.18
7840.18
7840.18
7840.18
7840.18
7840.18
7840.18
7840.18
7840.18
7840.18
7840.17
7840.17
7840.17
7840.17
7840.17
7840.17
7840.17
7840.17
7840.17
7840.17
7840.17
7840.17
7840.17
7840.17
7840.17
7840.17
7840.17
7840.17
7840.17
7840.17
7840.17
7840.17
7840.17
7840.17
7840.17
7840.17
7840.17
7840.17
7840.16
7840.16
7840.16
7840.16
7840.16
7840.16
7840.16
7840.16
7840.16
7840.16
7840.16
7840.16
7840.16
7840.16
7840.16
7840.16
7840.16
7840.16
7840.16
7840.16
7840.16
7840.16
7840.16
7840.16
7840.16
7840.16
7840.16
7840.16
7840.16
7840.16
7840.16
7840.16
7840.16
7840.16
7840.16
7840.16
7840.16
7840.16
7840.16
7840.16
7840.16
7840.16
7840.16
7840.16
7840.16
7840.16
7840.16
7840.16
7840.16
7840.16
7840.16
7840.16
7840.16
7840.16
7840.16
7840.16
7840.16
7840.16
7840.16
7840.16
7840.16
7840.16
7840.16
7840.16
7840.16
7840.16
7787.54
7787.05
7786.15
7785.36
7784.58
7783.83
7783.12
7782.45
7781.83
7781.24
7780.69
7780.17
7779.69
7779.24
7778.83
7778.46
7778.13
7777.83
7777.56
7777.33
7777.14
7776.98
7776.85
7776.76
7776.7
7776.67
7776.68
7776.72
7776.79
7776.88
7777
7777.15
7777.34
7777.54
7777.78
7778.03
7778.31
7778.62
7778.94
7779.28
7779.64
7780.02
7780.41
7780.83
7781.26
7781.7
7782.16
7782.63
7783.11
7783.6
7784.1
7784.61
7785.12
7785.64
7786.16
7786.69
7787.22
7787.75
7788.28
7788.81
7789.35
7789.88
7790.42
7790.95
7791.49
7792.02
7792.56
7793.09
7793.62
7794.15
7794.67
7795.19
7795.7
7796.21
7796.7
7797.19
7797.66
7798.14
7798.63
7799.1
7799.48
7799.91
7800.79
7801.4
7802.01
7802.64
7803.23
7803.83
7804.43
7805.07
7805.69
7806.32
7806.94
7807.56
7808.18
7808.8
7809.41
7810.02
7810.62
7811.22
7811.81
7812.39
7812.98
7813.58
7814.16
7814.74
7815.32
7815.89
7816.45
7817.02
7817.57
7818.13
7818.68
7819.22
7819.75
7820.28
7820.8
7821.31
7821.82
7822.32
7822.82
7823.32
7823.8
7824.28
7824.76
7825.22
7825.68
7826.13
7826.57
7827.01
7827.44
7827.85
7828.26
7828.66
7829.06
7829.44
7829.81
7830.18
7830.53
7830.88
7831.22
7831.55
7831.88
7832.19
7832.5
7832.81
7833.1
7833.39
7833.68
7833.96
7834.23
7834.49
7834.75
7835
7835.25
7835.49
7835.73
7835.96
7836.18
7836.39
7836.6
7836.81
7837.01
7837.2
7837.39
7837.57
7837.74
7837.91
7838.08
7838.24
7838.39
7838.54
7838.69
7838.83
7838.96
7839.09
7839.22
7839.34
7839.46
7839.57
7839.68
7839.79
7839.89
7839.99
7840.08
7840.17
7840.25
7840.34
7840.42
7840.49
7840.56
7840.63
7840.7
7840.76
7840.82
7840.88
7840.93
7840.99
7841.04
7841.08
7841.13
7841.17
7841.21
7841.24
7841.28
7841.31
7841.34
7841.37
7841.4
7841.42
7841.44
7841.46
7841.48
7841.5
7841.52
7841.53
7841.55
7841.56
7841.57
7841.58
7841.58
7841.59
7841.6
7841.6
7841.6
7841.61
7841.61
7841.61
7841.61
7841.6
7841.6
7841.6
7841.6
7841.59
7841.59
7841.58
7841.57
7841.57
7841.56
7841.55
7841.54
7841.53
7841.52
7841.51
7841.5
7841.49
7841.48
7841.47
7841.46
7841.45
7841.44
7841.42
7841.41
7841.4
7841.39
7841.37
7841.36
7841.35
7841.33
7841.32
7841.31
7841.29
7841.28
7841.27
7841.25
7841.24
7841.23
7841.21
7841.2
7841.18
7841.17
7841.16
7841.14
7841.13
7841.12
7841.1
7841.09
7841.08
7841.06
7841.05
7841.04
7841.03
7841.01
7841
7840.99
7840.98
7840.96
7840.95
7840.94
7840.93
7840.92
7840.9
7840.89
7840.88
7840.87
7840.86
7840.85
7840.84
7840.83
7840.82
7840.8
7840.79
7840.78
7840.77
7840.76
7840.75
7840.74
7840.74
7840.73
7840.72
7840.71
7840.7
7840.69
7840.68
7840.67
7840.66
7840.65
7840.64
7840.64
7840.63
7840.62
7840.61
7840.6
7840.6
7840.59
7840.58
7840.57
7840.57
7840.56
7840.55
7840.54
7840.54
7840.53
7840.52
7840.52
7840.51
7840.5
7840.5
7840.49
7840.48
7840.48
7840.47
7840.47
7840.46
7840.45
7840.45
7840.44
7840.44
7840.43
7840.43
7840.42
7840.41
7840.41
7840.4
7840.4
7840.39
7840.39
7840.38
7840.38
7840.37
7840.37
7840.37
7840.36
7840.36
7840.35
7840.35
7840.34
7840.34
7840.34
7840.33
7840.33
7840.32
7840.32
7840.32
7840.31
7840.31
7840.31
7840.3
7840.3
7840.3
7840.29
7840.29
7840.29
7840.28
7840.28
7840.28
7840.27
7840.27
7840.27
7840.27
7840.26
7840.26
7840.26
7840.26
7840.25
7840.25
7840.25
7840.25
7840.24
7840.24
7840.24
7840.24
7840.24
7840.23
7840.23
7840.23
7840.23
7840.23
7840.22
7840.22
7840.22
7840.22
7840.22
7840.22
7840.21
7840.21
7840.21
7840.21
7840.21
7840.21
7840.21
7840.2
7840.2
7840.2
7840.2
7840.2
7840.2
7840.2
7840.2
7840.19
7840.19
7840.19
7840.19
7840.19
7840.19
7840.19
7840.19
7840.19
7840.19
7840.19
7840.19
7840.18
7840.18
7840.18
7840.18
7840.18
7840.18
7840.18
7840.18
7840.18
7840.18
7840.18
7840.18
7840.18
7840.18
7840.17
7840.17
7840.17
7840.17
7840.17
7840.17
7840.17
7840.17
7840.17
7840.17
7840.17
7840.17
7840.17
7840.17
7840.17
7840.17
7840.17
7840.17
7840.17
7840.17
7840.17
7840.17
7840.17
7840.17
7840.17
7840.17
7840.17
7840.17
7840.16
7840.16
7840.16
7840.16
7840.16
7840.16
7840.16
7840.16
7840.16
7840.16
7840.16
7840.16
7840.16
7840.16
7840.16
7840.16
7840.16
7840.16
7840.16
7840.16
7840.16
7840.16
7840.16
7840.16
7840.16
7840.16
7840.16
7840.16
7840.16
7840.16
7840.16
7840.16
7840.16
7840.16
7840.16
7840.16
7840.16
7840.16
7840.16
7840.16
7840.16
7840.16
7840.16
7840.16
7840.16
7840.16
7840.16
7840.16
7840.16
7840.16
7840.16
7840.16
7840.16
7840.16
7840.16
7840.16
7840.16
7840.16
7840.16
7840.16
7840.16
7840.16
7840.16
7840.16
7840.16
7840.16
7840.16
7786.71
7786.19
7785.43
7784.72
7784.02
7783.36
7782.71
7782.1
7781.52
7780.97
7780.44
7779.95
7779.49
7779.06
7778.67
7778.31
7777.98
7777.69
7777.43
7777.2
7777.01
7776.86
7776.73
7776.65
7776.59
7776.57
7776.57
7776.61
7776.67
7776.76
7776.89
7777.02
7777.21
7777.45
7777.7
7777.96
7778.23
7778.52
7778.87
7779.24
7779.6
7779.99
7780.39
7780.82
7781.25
7781.7
7782.17
7782.64
7783.12
7783.62
7784.12
7784.63
7785.15
7785.67
7786.2
7786.73
7787.27
7787.8
7788.33
7788.87
7789.4
7789.94
7790.47
7791.01
7791.55
7792.09
7792.63
7793.16
7793.7
7794.23
7794.75
7795.28
7795.8
7796.31
7796.82
7797.32
7797.82
7798.31
7798.81
7799.32
7799.84
7800.39
7800.89
7801.3
7801.75
7802.67
7803.29
7803.93
7804.52
7805.14
7805.75
7806.36
7806.99
7807.62
7808.24
7808.86
7809.47
7810.08
7810.68
7811.28
7811.88
7812.47
7813.06
7813.64
7814.22
7814.79
7815.38
7815.95
7816.52
7817.08
7817.64
7818.19
7818.74
7819.28
7819.82
7820.34
7820.87
7821.38
7821.89
7822.39
7822.89
7823.38
7823.86
7824.34
7824.81
7825.28
7825.74
7826.19
7826.63
7827.07
7827.49
7827.91
7828.32
7828.72
7829.11
7829.49
7829.86
7830.22
7830.58
7830.93
7831.26
7831.6
7831.92
7832.24
7832.55
7832.85
7833.15
7833.44
7833.72
7834
7834.27
7834.53
7834.79
7835.04
7835.29
7835.53
7835.76
7835.99
7836.21
7836.43
7836.64
7836.84
7837.04
7837.23
7837.42
7837.6
7837.77
7837.94
7838.11
7838.27
7838.42
7838.57
7838.71
7838.85
7838.99
7839.12
7839.24
7839.36
7839.48
7839.59
7839.7
7839.81
7839.91
7840
7840.1
7840.18
7840.27
7840.35
7840.43
7840.51
7840.58
7840.65
7840.71
7840.78
7840.83
7840.89
7840.95
7841
7841.05
7841.09
7841.13
7841.18
7841.21
7841.25
7841.29
7841.32
7841.35
7841.38
7841.4
7841.43
7841.45
7841.47
7841.49
7841.51
7841.52
7841.54
7841.55
7841.56
7841.57
7841.58
7841.59
7841.59
7841.6
7841.6
7841.61
7841.61
7841.61
7841.61
7841.61
7841.61
7841.6
7841.6
7841.6
7841.59
7841.59
7841.58
7841.57
7841.57
7841.56
7841.55
7841.54
7841.53
7841.52
7841.51
7841.5
7841.49
7841.48
7841.47
7841.46
7841.45
7841.43
7841.42
7841.41
7841.4
7841.38
7841.37
7841.36
7841.35
7841.33
7841.32
7841.31
7841.29
7841.28
7841.27
7841.25
7841.24
7841.22
7841.21
7841.2
7841.18
7841.17
7841.16
7841.14
7841.13
7841.12
7841.1
7841.09
7841.08
7841.06
7841.05
7841.04
7841.02
7841.01
7841
7840.99
7840.97
7840.96
7840.95
7840.94
7840.93
7840.91
7840.9
7840.89
7840.88
7840.87
7840.86
7840.85
7840.84
7840.82
7840.81
7840.8
7840.79
7840.78
7840.77
7840.76
7840.75
7840.74
7840.73
7840.72
7840.72
7840.71
7840.7
7840.69
7840.68
7840.67
7840.66
7840.65
7840.64
7840.64
7840.63
7840.62
7840.61
7840.6
7840.59
7840.59
7840.58
7840.57
7840.56
7840.56
7840.55
7840.54
7840.54
7840.53
7840.52
7840.52
7840.51
7840.5
7840.5
7840.49
7840.48
7840.48
7840.47
7840.46
7840.46
7840.45
7840.45
7840.44
7840.44
7840.43
7840.42
7840.42
7840.41
7840.41
7840.4
7840.4
7840.39
7840.39
7840.38
7840.38
7840.37
7840.37
7840.37
7840.36
7840.36
7840.35
7840.35
7840.34
7840.34
7840.34
7840.33
7840.33
7840.32
7840.32
7840.32
7840.31
7840.31
7840.31
7840.3
7840.3
7840.3
7840.29
7840.29
7840.29
7840.28
7840.28
7840.28
7840.27
7840.27
7840.27
7840.27
7840.26
7840.26
7840.26
7840.26
7840.25
7840.25
7840.25
7840.25
7840.24
7840.24
7840.24
7840.24
7840.24
7840.23
7840.23
7840.23
7840.23
7840.23
7840.22
7840.22
7840.22
7840.22
7840.22
7840.22
7840.21
7840.21
7840.21
7840.21
7840.21
7840.21
7840.21
7840.2
7840.2
7840.2
7840.2
7840.2
7840.2
7840.2
7840.2
7840.19
7840.19
7840.19
7840.19
7840.19
7840.19
7840.19
7840.19
7840.19
7840.19
7840.19
7840.18
7840.18
7840.18
7840.18
7840.18
7840.18
7840.18
7840.18
7840.18
7840.18
7840.18
7840.18
7840.18
7840.18
7840.18
7840.17
7840.17
7840.17
7840.17
7840.17
7840.17
7840.17
7840.17
7840.17
7840.17
7840.17
7840.17
7840.17
7840.17
7840.17
7840.17
7840.17
7840.17
7840.17
7840.17
7840.17
7840.17
7840.17
7840.17
7840.17
7840.17
7840.17
7840.17
7840.16
7840.16
7840.16
7840.16
7840.16
7840.16
7840.16
7840.16
7840.16
7840.16
7840.16
7840.16
7840.16
7840.16
7840.16
7840.16
7840.16
7840.16
7840.16
7840.16
7840.16
7840.16
7840.16
7840.16
7840.16
7840.16
7840.16
7840.16
7840.16
7840.16
7840.16
7840.16
7840.16
7840.16
7840.16
7840.16
7840.16
7840.16
7840.16
7840.16
7840.16
7840.16
7840.16
7840.16
7840.16
7840.16
7840.16
7840.16
7840.16
7840.16
7840.16
7840.16
7840.16
7840.16
7840.16
7840.16
7840.16
7840.16
7840.16
7840.16
7840.16
7840.16
7840.16
7840.16
7840.16
7840.16
7840.16
7787.11
7786.41
7785.53
7784.75
7784
7783.28
7782.61
7781.98
7781.37
7780.8
7780.26
7779.76
7779.3
7778.86
7778.47
7778.1
7777.78
7777.49
7777.23
7777
7776.82
7776.66
7776.54
7776.46
7776.41
7776.39
7776.4
7776.44
7776.51
7776.61
7776.74
7776.89
7777.07
7777.29
7777.54
7777.82
7778.12
7778.45
7778.8
7779.16
7779.54
7779.94
7780.35
7780.78
7781.22
7781.67
7782.14
7782.61
7783.1
7783.6
7784.1
7784.62
7785.14
7785.67
7786.2
7786.74
7787.28
7787.81
7788.35
7788.89
7789.43
7789.97
7790.51
7791.06
7791.6
7792.15
7792.69
7793.23
7793.77
7794.31
7794.85
7795.38
7795.91
7796.43
7796.95
7797.47
7797.99
7798.5
7799.02
7799.54
7800.07
7800.59
7801.14
7801.7
7802.31
7802.86
7803.35
7803.78
7804.24
7805.17
7805.8
7806.42
7807.07
7807.68
7808.29
7808.93
7809.55
7810.16
7810.77
7811.37
7811.97
7812.56
7813.15
7813.74
7814.32
7814.9
7815.47
7816.04
7816.6
7817.16
7817.73
7818.28
7818.83
7819.37
7819.91
7820.43
7820.96
7821.47
7821.98
7822.48
7822.98
7823.47
7823.95
7824.43
7824.9
7825.36
7825.82
7826.27
7826.71
7827.15
7827.57
7827.99
7828.39
7828.79
7829.18
7829.56
7829.93
7830.29
7830.65
7830.99
7831.33
7831.66
7831.99
7832.3
7832.61
7832.91
7833.21
7833.5
7833.78
7834.06
7834.33
7834.59
7834.85
7835.1
7835.34
7835.58
7835.81
7836.04
7836.26
7836.48
7836.68
7836.89
7837.08
7837.27
7837.46
7837.64
7837.81
7837.98
7838.15
7838.3
7838.46
7838.61
7838.75
7838.89
7839.02
7839.15
7839.28
7839.4
7839.51
7839.62
7839.73
7839.84
7839.94
7840.03
7840.12
7840.21
7840.3
7840.38
7840.46
7840.53
7840.6
7840.67
7840.73
7840.8
7840.85
7840.91
7840.96
7841.01
7841.06
7841.11
7841.15
7841.19
7841.23
7841.27
7841.3
7841.33
7841.36
7841.39
7841.41
7841.44
7841.46
7841.48
7841.5
7841.52
7841.53
7841.54
7841.56
7841.57
7841.58
7841.59
7841.59
7841.6
7841.6
7841.61
7841.61
7841.61
7841.61
7841.61
7841.61
7841.61
7841.61
7841.6
7841.6
7841.59
7841.59
7841.58
7841.57
7841.57
7841.56
7841.55
7841.54
7841.53
7841.52
7841.51
7841.5
7841.49
7841.48
7841.47
7841.46
7841.45
7841.43
7841.42
7841.41
7841.4
7841.38
7841.37
7841.36
7841.34
7841.33
7841.32
7841.3
7841.29
7841.28
7841.26
7841.25
7841.24
7841.22
7841.21
7841.2
7841.18
7841.17
7841.15
7841.14
7841.13
7841.11
7841.1
7841.09
7841.07
7841.06
7841.05
7841.04
7841.02
7841.01
7841
7840.99
7840.97
7840.96
7840.95
7840.94
7840.92
7840.91
7840.9
7840.89
7840.88
7840.87
7840.86
7840.84
7840.83
7840.82
7840.81
7840.8
7840.79
7840.78
7840.77
7840.76
7840.75
7840.74
7840.73
7840.72
7840.71
7840.7
7840.7
7840.69
7840.68
7840.67
7840.66
7840.65
7840.64
7840.63
7840.63
7840.62
7840.61
7840.6
7840.59
7840.59
7840.58
7840.57
7840.56
7840.56
7840.55
7840.54
7840.53
7840.53
7840.52
7840.51
7840.51
7840.5
7840.49
7840.49
7840.48
7840.48
7840.47
7840.46
7840.46
7840.45
7840.45
7840.44
7840.43
7840.43
7840.42
7840.42
7840.41
7840.41
7840.4
7840.4
7840.39
7840.39
7840.38
7840.38
7840.37
7840.37
7840.36
7840.36
7840.36
7840.35
7840.35
7840.34
7840.34
7840.33
7840.33
7840.33
7840.32
7840.32
7840.32
7840.31
7840.31
7840.31
7840.3
7840.3
7840.3
7840.29
7840.29
7840.29
7840.28
7840.28
7840.28
7840.27
7840.27
7840.27
7840.27
7840.26
7840.26
7840.26
7840.25
7840.25
7840.25
7840.25
7840.25
7840.24
7840.24
7840.24
7840.24
7840.23
7840.23
7840.23
7840.23
7840.23
7840.22
7840.22
7840.22
7840.22
7840.22
7840.22
7840.21
7840.21
7840.21
7840.21
7840.21
7840.21
7840.21
7840.2
7840.2
7840.2
7840.2
7840.2
7840.2
7840.2
7840.2
7840.2
7840.19
7840.19
7840.19
7840.19
7840.19
7840.19
7840.19
7840.19
7840.19
7840.19
7840.19
7840.18
7840.18
7840.18
7840.18
7840.18
7840.18
7840.18
7840.18
7840.18
7840.18
7840.18
7840.18
7840.18
7840.18
7840.18
7840.17
7840.17
7840.17
7840.17
7840.17
7840.17
7840.17
7840.17
7840.17
7840.17
7840.17
7840.17
7840.17
7840.17
7840.17
7840.17
7840.17
7840.17
7840.17
7840.17
7840.17
7840.17
7840.17
7840.17
7840.17
7840.17
7840.17
7840.17
7840.16
7840.16
7840.16
7840.16
7840.16
7840.16
7840.16
7840.16
7840.16
7840.16
7840.16
7840.16
7840.16
7840.16
7840.16
7840.16
7840.16
7840.16
7840.16
7840.16
7840.16
7840.16
7840.16
7840.16
7840.16
7840.16
7840.16
7840.16
7840.16
7840.16
7840.16
7840.16
7840.16
7840.16
7840.16
7840.16
7840.16
7840.16
7840.16
7840.16
7840.16
7840.16
7840.16
7840.16
7840.16
7840.16
7840.16
7840.16
7840.16
7840.16
7840.16
7840.16
7840.16
7840.16
7840.16
7840.16
7840.16
7840.16
7840.16
7840.16
7840.16
7840.16
7840.16
7840.16
7840.16
7840.16
7840.16
7786.42
7785.82
7785
7784.28
7783.57
7782.87
7782.22
7781.59
7780.99
7780.43
7779.9
7779.4
7778.93
7778.5
7778.11
7777.75
7777.43
7777.15
7776.9
7776.69
7776.51
7776.37
7776.26
7776.18
7776.14
7776.13
7776.15
7776.21
7776.29
7776.4
7776.54
7776.7
7776.89
7777.11
7777.35
7777.63
7777.94
7778.26
7778.61
7778.99
7779.38
7779.78
7780.2
7780.64
7781.09
7781.55
7782.02
7782.5
7782.99
7783.48
7783.99
7784.51
7785.04
7785.58
7786.11
7786.66
7787.2
7787.75
7788.3
7788.85
7789.4
7789.95
7790.51
7791.06
7791.62
7792.17
7792.73
7793.29
7793.84
7794.39
7794.93
7795.47
7796.01
7796.55
7797.09
7797.63
7798.16
7798.69
7799.23
7799.76
7800.29
7800.82
7801.37
7801.93
7802.48
7803.03
7803.59
7804.16
7804.76
7805.3
7805.73
7806.19
7807.13
7807.76
7808.37
7809.02
7809.62
7810.23
7810.86
7811.47
7812.07
7812.67
7813.26
7813.85
7814.44
7815.02
7815.59
7816.16
7816.73
7817.29
7817.85
7818.39
7818.94
7819.49
7820.02
7820.55
7821.07
7821.59
7822.1
7822.6
7823.1
7823.59
7824.07
7824.55
7825.02
7825.48
7825.94
7826.38
7826.82
7827.25
7827.67
7828.09
7828.49
7828.89
7829.28
7829.66
7830.03
7830.39
7830.74
7831.09
7831.42
7831.75
7832.08
7832.39
7832.7
7833
7833.29
7833.58
7833.86
7834.14
7834.41
7834.67
7834.92
7835.17
7835.42
7835.65
7835.89
7836.11
7836.33
7836.54
7836.75
7836.95
7837.15
7837.34
7837.52
7837.7
7837.87
7838.04
7838.2
7838.36
7838.51
7838.66
7838.8
7838.94
7839.07
7839.2
7839.32
7839.44
7839.56
7839.67
7839.77
7839.88
7839.98
7840.07
7840.16
7840.25
7840.33
7840.41
7840.49
7840.56
7840.63
7840.7
7840.76
7840.82
7840.88
7840.94
7840.99
7841.04
7841.09
7841.13
7841.17
7841.21
7841.25
7841.28
7841.32
7841.35
7841.38
7841.4
7841.43
7841.45
7841.47
7841.49
7841.51
7841.53
7841.54
7841.55
7841.57
7841.58
7841.59
7841.59
7841.6
7841.61
7841.61
7841.61
7841.62
7841.62
7841.62
7841.62
7841.61
7841.61
7841.61
7841.61
7841.6
7841.6
7841.59
7841.58
7841.58
7841.57
7841.56
7841.55
7841.54
7841.53
7841.52
7841.51
7841.5
7841.49
7841.48
7841.47
7841.46
7841.45
7841.43
7841.42
7841.41
7841.39
7841.38
7841.37
7841.36
7841.34
7841.33
7841.32
7841.3
7841.29
7841.27
7841.26
7841.25
7841.23
7841.22
7841.21
7841.19
7841.18
7841.17
7841.15
7841.14
7841.13
7841.11
7841.1
7841.09
7841.07
7841.06
7841.05
7841.03
7841.02
7841.01
7841
7840.98
7840.97
7840.96
7840.95
7840.93
7840.92
7840.91
7840.9
7840.89
7840.88
7840.86
7840.85
7840.84
7840.83
7840.82
7840.81
7840.8
7840.79
7840.78
7840.77
7840.76
7840.75
7840.74
7840.73
7840.72
7840.71
7840.7
7840.69
7840.68
7840.68
7840.67
7840.66
7840.65
7840.64
7840.63
7840.62
7840.62
7840.61
7840.6
7840.59
7840.58
7840.58
7840.57
7840.56
7840.55
7840.55
7840.54
7840.53
7840.53
7840.52
7840.51
7840.51
7840.5
7840.49
7840.49
7840.48
7840.47
7840.47
7840.46
7840.46
7840.45
7840.44
7840.44
7840.43
7840.43
7840.42
7840.42
7840.41
7840.41
7840.4
7840.4
7840.39
7840.39
7840.38
7840.38
7840.37
7840.37
7840.36
7840.36
7840.35
7840.35
7840.35
7840.34
7840.34
7840.33
7840.33
7840.33
7840.32
7840.32
7840.31
7840.31
7840.31
7840.3
7840.3
7840.3
7840.29
7840.29
7840.29
7840.28
7840.28
7840.28
7840.28
7840.27
7840.27
7840.27
7840.26
7840.26
7840.26
7840.26
7840.25
7840.25
7840.25
7840.25
7840.24
7840.24
7840.24
7840.24
7840.24
7840.23
7840.23
7840.23
7840.23
7840.23
7840.22
7840.22
7840.22
7840.22
7840.22
7840.22
7840.21
7840.21
7840.21
7840.21
7840.21
7840.21
7840.21
7840.2
7840.2
7840.2
7840.2
7840.2
7840.2
7840.2
7840.2
7840.2
7840.19
7840.19
7840.19
7840.19
7840.19
7840.19
7840.19
7840.19
7840.19
7840.19
7840.19
7840.18
7840.18
7840.18
7840.18
7840.18
7840.18
7840.18
7840.18
7840.18
7840.18
7840.18
7840.18
7840.18
7840.18
7840.18
7840.17
7840.17
7840.17
7840.17
7840.17
7840.17
7840.17
7840.17
7840.17
7840.17
7840.17
7840.17
7840.17
7840.17
7840.17
7840.17
7840.17
7840.17
7840.17
7840.17
7840.17
7840.17
7840.17
7840.17
7840.17
7840.17
7840.17
7840.16
7840.16
7840.16
7840.16
7840.16
7840.16
7840.16
7840.16
7840.16
7840.16
7840.16
7840.16
7840.16
7840.16
7840.16
7840.16
7840.16
7840.16
7840.16
7840.16
7840.16
7840.16
7840.16
7840.16
7840.16
7840.16
7840.16
7840.16
7840.16
7840.16
7840.16
7840.16
7840.16
7840.16
7840.16
7840.16
7840.16
7840.16
7840.16
7840.16
7840.16
7840.16
7840.16
7840.16
7840.16
7840.16
7840.16
7840.16
7840.16
7840.16
7840.16
7840.16
7840.16
7840.16
7840.16
7840.16
7840.16
7840.16
7840.16
7840.16
7840.16
7840.16
7840.16
7840.16
7840.16
7840.16
7840.16
7840.16
7786.12
7785.37
7784.61
7783.87
7783.13
7782.41
7781.74
7781.1
7780.48
7779.91
7779.37
7778.87
7778.4
7777.97
7777.58
7777.24
7776.93
7776.66
7776.42
7776.22
7776.06
7775.93
7775.83
7775.77
7775.73
7775.73
7775.76
7775.83
7775.93
7776.05
7776.21
7776.38
7776.58
7776.8
7777.05
7777.32
7777.61
7777.92
7778.26
7778.63
7779.02
7779.43
7779.86
7780.3
7780.76
7781.23
7781.71
7782.2
7782.69
7783.2
7783.72
7784.25
7784.79
7785.34
7785.9
7786.46
7787.02
7787.59
7788.15
7788.72
7789.29
7789.86
7790.43
7790.99
7791.57
7792.15
7792.72
7793.29
7793.86
7794.42
7794.99
7795.54
7796.08
7796.63
7797.18
7797.73
7798.28
7798.83
7799.38
7799.93
7800.48
7801.04
7801.6
7802.15
7802.7
7803.26
7803.83
7804.39
7804.95
7805.51
7806.09
7806.7
7807.24
7807.69
7808.13
7809.09
7809.7
7810.29
7810.96
7811.55
7812.15
7812.77
7813.38
7813.97
7814.56
7815.14
7815.72
7816.29
7816.86
7817.43
7817.98
7818.53
7819.08
7819.62
7820.14
7820.67
7821.2
7821.72
7822.23
7822.73
7823.23
7823.72
7824.21
7824.68
7825.15
7825.61
7826.07
7826.51
7826.95
7827.38
7827.8
7828.21
7828.61
7829.01
7829.39
7829.77
7830.14
7830.5
7830.85
7831.19
7831.53
7831.86
7832.18
7832.5
7832.8
7833.1
7833.4
7833.68
7833.96
7834.24
7834.5
7834.76
7835.02
7835.26
7835.51
7835.74
7835.97
7836.19
7836.41
7836.62
7836.83
7837.03
7837.22
7837.41
7837.59
7837.77
7837.94
7838.11
7838.27
7838.42
7838.57
7838.72
7838.86
7839
7839.13
7839.25
7839.38
7839.49
7839.61
7839.72
7839.82
7839.92
7840.02
7840.11
7840.2
7840.29
7840.37
7840.45
7840.53
7840.6
7840.67
7840.73
7840.8
7840.86
7840.91
7840.97
7841.02
7841.07
7841.11
7841.16
7841.2
7841.24
7841.27
7841.31
7841.34
7841.37
7841.4
7841.42
7841.45
7841.47
7841.49
7841.51
7841.52
7841.54
7841.55
7841.57
7841.58
7841.59
7841.59
7841.6
7841.61
7841.61
7841.62
7841.62
7841.62
7841.62
7841.62
7841.62
7841.62
7841.62
7841.61
7841.61
7841.6
7841.6
7841.59
7841.58
7841.58
7841.57
7841.56
7841.55
7841.54
7841.53
7841.52
7841.51
7841.5
7841.49
7841.48
7841.47
7841.46
7841.44
7841.43
7841.42
7841.41
7841.39
7841.38
7841.37
7841.35
7841.34
7841.33
7841.31
7841.3
7841.28
7841.27
7841.26
7841.24
7841.23
7841.22
7841.2
7841.19
7841.18
7841.16
7841.15
7841.14
7841.12
7841.11
7841.1
7841.08
7841.07
7841.06
7841.04
7841.03
7841.02
7841
7840.99
7840.98
7840.97
7840.95
7840.94
7840.93
7840.92
7840.91
7840.9
7840.88
7840.87
7840.86
7840.85
7840.84
7840.83
7840.82
7840.81
7840.8
7840.79
7840.78
7840.77
7840.76
7840.75
7840.74
7840.73
7840.72
7840.71
7840.7
7840.69
7840.68
7840.67
7840.66
7840.66
7840.65
7840.64
7840.63
7840.62
7840.61
7840.61
7840.6
7840.59
7840.58
7840.57
7840.57
7840.56
7840.55
7840.55
7840.54
7840.53
7840.52
7840.52
7840.51
7840.5
7840.5
7840.49
7840.49
7840.48
7840.47
7840.47
7840.46
7840.45
7840.45
7840.44
7840.44
7840.43
7840.43
7840.42
7840.42
7840.41
7840.41
7840.4
7840.4
7840.39
7840.39
7840.38
7840.38
7840.37
7840.37
7840.36
7840.36
7840.35
7840.35
7840.34
7840.34
7840.34
7840.33
7840.33
7840.32
7840.32
7840.32
7840.31
7840.31
7840.31
7840.3
7840.3
7840.3
7840.29
7840.29
7840.29
7840.28
7840.28
7840.28
7840.27
7840.27
7840.27
7840.27
7840.26
7840.26
7840.26
7840.26
7840.25
7840.25
7840.25
7840.25
7840.24
7840.24
7840.24
7840.24
7840.24
7840.23
7840.23
7840.23
7840.23
7840.23
7840.22
7840.22
7840.22
7840.22
7840.22
7840.22
7840.21
7840.21
7840.21
7840.21
7840.21
7840.21
7840.21
7840.2
7840.2
7840.2
7840.2
7840.2
7840.2
7840.2
7840.2
7840.19
7840.19
7840.19
7840.19
7840.19
7840.19
7840.19
7840.19
7840.19
7840.19
7840.19
7840.19
7840.18
7840.18
7840.18
7840.18
7840.18
7840.18
7840.18
7840.18
7840.18
7840.18
7840.18
7840.18
7840.18
7840.18
7840.18
7840.17
7840.17
7840.17
7840.17
7840.17
7840.17
7840.17
7840.17
7840.17
7840.17
7840.17
7840.17
7840.17
7840.17
7840.17
7840.17
7840.17
7840.17
7840.17
7840.17
7840.17
7840.17
7840.17
7840.17
7840.17
7840.17
7840.17
7840.16
7840.16
7840.16
7840.16
7840.16
7840.16
7840.16
7840.16
7840.16
7840.16
7840.16
7840.16
7840.16
7840.16
7840.16
7840.16
7840.16
7840.16
7840.16
7840.16
7840.16
7840.16
7840.16
7840.16
7840.16
7840.16
7840.16
7840.16
7840.16
7840.16
7840.16
7840.16
7840.16
7840.16
7840.16
7840.16
7840.16
7840.16
7840.16
7840.16
7840.16
7840.16
7840.16
7840.16
7840.16
7840.16
7840.16
7840.16
7840.16
7840.16
7840.16
7840.16
7840.16
7840.16
7840.16
7840.16
7840.16
7840.16
7840.16
7840.16
7840.16
7840.16
7840.16
7840.16
7840.16
7840.16
7840.16
7840.16
7785.59
7784.75
7784.04
7783.31
7782.55
7781.79
7781.1
7780.43
7779.8
7779.21
7778.66
7778.16
7777.69
7777.26
7776.88
7776.55
7776.25
7775.99
7775.76
7775.57
7775.42
7775.31
7775.22
7775.17
7775.14
7775.14
7775.17
7775.23
7775.33
7775.47
7775.64
7775.83
7776.05
7776.28
7776.54
7776.81
7777.1
7777.42
7777.75
7778.11
7778.48
7778.88
7779.3
7779.75
7780.21
7780.68
7781.18
7781.68
7782.2
7782.72
7783.26
7783.82
7784.39
7784.97
7785.55
7786.14
7786.74
7787.32
7787.92
7788.53
7789.13
7789.73
7790.32
7790.91
7791.5
7792.08
7792.67
7793.25
7793.83
7794.41
7794.99
7795.56
7796.13
7796.69
7797.26
7797.82
7798.39
7798.96
7799.53
7800.09
7800.66
7801.23
7801.8
7802.36
7802.93
7803.49
7804.06
7804.63
7805.19
7805.76
7806.33
7806.9
7807.47
7808.05
7808.65
7809.22
7809.65
7810.07
7811.04
7811.65
7812.22
7812.91
7813.5
7814.08
7814.69
7815.29
7815.87
7816.45
7817.02
7817.58
7818.14
7818.69
7819.23
7819.77
7820.3
7820.83
7821.35
7821.87
7822.37
7822.89
7823.38
7823.87
7824.36
7824.84
7825.31
7825.77
7826.22
7826.66
7827.1
7827.52
7827.94
7828.35
7828.75
7829.14
7829.52
7829.9
7830.26
7830.62
7830.98
7831.32
7831.65
7831.98
7832.3
7832.62
7832.92
7833.22
7833.51
7833.8
7834.08
7834.35
7834.61
7834.87
7835.12
7835.37
7835.61
7835.84
7836.07
7836.29
7836.5
7836.71
7836.92
7837.12
7837.31
7837.49
7837.67
7837.85
7838.02
7838.18
7838.34
7838.5
7838.65
7838.79
7838.93
7839.06
7839.19
7839.32
7839.44
7839.55
7839.67
7839.77
7839.88
7839.98
7840.07
7840.16
7840.25
7840.34
7840.42
7840.49
7840.57
7840.64
7840.71
7840.77
7840.83
7840.89
7840.95
7841
7841.05
7841.1
7841.14
7841.19
7841.22
7841.26
7841.3
7841.33
7841.36
7841.39
7841.42
7841.44
7841.46
7841.49
7841.5
7841.52
7841.54
7841.55
7841.57
7841.58
7841.59
7841.6
7841.6
7841.61
7841.62
7841.62
7841.62
7841.62
7841.63
7841.63
7841.63
7841.62
7841.62
7841.62
7841.61
7841.61
7841.6
7841.6
7841.59
7841.59
7841.58
7841.57
7841.56
7841.55
7841.54
7841.53
7841.52
7841.51
7841.5
7841.49
7841.48
7841.47
7841.45
7841.44
7841.43
7841.41
7841.4
7841.39
7841.38
7841.36
7841.35
7841.33
7841.32
7841.31
7841.29
7841.28
7841.27
7841.25
7841.24
7841.23
7841.21
7841.2
7841.18
7841.17
7841.16
7841.14
7841.13
7841.12
7841.1
7841.09
7841.08
7841.06
7841.05
7841.04
7841.03
7841.01
7841
7840.99
7840.97
7840.96
7840.95
7840.94
7840.93
7840.91
7840.9
7840.89
7840.88
7840.87
7840.86
7840.85
7840.84
7840.82
7840.81
7840.8
7840.79
7840.78
7840.77
7840.76
7840.75
7840.74
7840.73
7840.72
7840.71
7840.7
7840.7
7840.69
7840.68
7840.67
7840.66
7840.65
7840.64
7840.64
7840.63
7840.62
7840.61
7840.6
7840.59
7840.59
7840.58
7840.57
7840.56
7840.56
7840.55
7840.54
7840.54
7840.53
7840.52
7840.51
7840.51
7840.5
7840.5
7840.49
7840.48
7840.48
7840.47
7840.46
7840.46
7840.45
7840.45
7840.44
7840.44
7840.43
7840.42
7840.42
7840.41
7840.41
7840.4
7840.4
7840.39
7840.39
7840.38
7840.38
7840.37
7840.37
7840.36
7840.36
7840.36
7840.35
7840.35
7840.34
7840.34
7840.34
7840.33
7840.33
7840.32
7840.32
7840.32
7840.31
7840.31
7840.31
7840.3
7840.3
7840.3
7840.29
7840.29
7840.29
7840.28
7840.28
7840.28
7840.27
7840.27
7840.27
7840.27
7840.26
7840.26
7840.26