/*--------------------------------*- C++ -*----------------------------------*\
| =========                 |                                                 |
| \\      /  F ield         | OpenFOAM: The Open Source CFD Toolbox           |
|  \\    /   O peration     | Version:  v2006                                 |
|   \\  /    A nd           | Website:  www.openfoam.com                      |
|    \\/     M anipulation  |                                                 |
\*---------------------------------------------------------------------------*/
FoamFile
{
    version     2.0;
    format      ascii;
    class       surfaceScalarField;
    location    "0.9";
    object      phi;
}
// * * * * * * * * * * * * * * * * * * * * * * * * * * * * * * * * * * * * * //

dimensions      [0 3 -1 0 0 0 0];
oriented        oriented;


internalField   nonuniform List<scalar> 
65390
(
-1.36919e-05
-1.40354e-08
-1.37466e-05
4.59441e-08
-1.38054e-05
5.20492e-08
-1.38442e-05
3.31309e-08
-1.38827e-05
3.41959e-08
-1.39236e-05
3.69929e-08
-1.39563e-05
2.9724e-08
-1.39774e-05
1.82088e-08
-1.39904e-05
1.01544e-08
-1.39966e-05
4.02862e-09
-1.3994e-05
-4.22429e-09
-1.39857e-05
-9.94684e-09
-1.39687e-05
-1.85427e-08
-1.39521e-05
-1.75426e-08
-1.39304e-05
-2.23633e-08
-1.3904e-05
-2.70847e-08
-1.38736e-05
-3.10883e-08
-1.38362e-05
-3.77603e-08
-1.37918e-05
-4.4256e-08
-1.3742e-05
-4.94147e-08
-1.36867e-05
-5.50072e-08
-1.36251e-05
-6.10113e-08
-1.35572e-05
-6.68618e-08
-1.34844e-05
-7.13635e-08
-1.34075e-05
-7.49571e-08
-1.33271e-05
-7.84713e-08
-1.32412e-05
-8.38199e-08
-1.31499e-05
-8.90528e-08
-1.30542e-05
-9.32441e-08
-1.29546e-05
-9.68646e-08
-1.2851e-05
-1.0072e-07
-1.27437e-05
-1.04382e-07
-1.26316e-05
-1.0941e-07
-1.25143e-05
-1.14787e-07
-1.23934e-05
-1.18675e-07
-1.22693e-05
-1.2203e-07
-1.21415e-05
-1.26117e-07
-1.20095e-05
-1.30631e-07
-1.18741e-05
-1.34532e-07
-1.17363e-05
-1.37513e-07
-1.15973e-05
-1.39245e-07
-1.1457e-05
-1.40945e-07
-1.1312e-05
-1.46208e-07
-1.11638e-05
-1.49779e-07
-1.10159e-05
-1.49836e-07
-1.08662e-05
-1.52143e-07
-1.07125e-05
-1.56663e-07
-1.05554e-05
-1.60964e-07
-1.03954e-05
-1.64553e-07
-1.02334e-05
-1.67474e-07
-1.00697e-05
-1.69878e-07
-9.90194e-06
-1.74434e-07
-9.73048e-06
-1.78503e-07
-9.55627e-06
-1.81337e-07
-9.37999e-06
-1.83287e-07
-9.20252e-06
-1.84196e-07
-9.0243e-06
-1.84562e-07
-8.84507e-06
-1.85163e-07
-8.66573e-06
-1.84879e-07
-8.48702e-06
-1.83935e-07
-8.30808e-06
-1.83921e-07
-8.12875e-06
-1.84144e-07
-7.94901e-06
-1.8443e-07
-7.76846e-06
-1.85135e-07
-7.58625e-06
-1.86656e-07
-7.40169e-06
-1.88827e-07
-7.21388e-06
-1.91833e-07
-7.02178e-06
-1.95829e-07
-6.82426e-06
-2.00852e-07
-6.61967e-06
-2.07426e-07
-6.40519e-06
-2.16712e-07
-6.17581e-06
-2.30937e-07
-5.92292e-06
-2.53771e-07
-5.63321e-06
-2.89988e-07
-5.28401e-06
-3.48962e-07
-4.83791e-06
-4.45382e-07
-4.22068e-06
-6.15939e-07
-3.30741e-06
-9.11418e-07
-2.57893e-06
-7.27203e-07
-2.30535e-06
-2.73507e-07
-2.17286e-06
-1.32065e-07
-2.19287e-06
2.07923e-08
-2.14097e-06
-5.16704e-08
-2.12026e-06
-2.0193e-08
-2.12573e-06
5.67106e-09
-2.06626e-06
-5.93385e-08
-2.01101e-06
-5.49851e-08
-1.9661e-06
-4.48926e-08
-1.93427e-06
-3.19622e-08
-1.89705e-06
-3.73239e-08
-1.86096e-06
-3.61097e-08
-1.82573e-06
-3.52413e-08
-1.7881e-06
-3.78337e-08
-1.75003e-06
-3.84914e-08
-1.7116e-06
-3.89045e-08
-1.67108e-06
-4.09688e-08
-1.62919e-06
-4.23517e-08
-1.58529e-06
-4.43404e-08
-1.53743e-06
-4.81745e-08
-1.49039e-06
-4.71576e-08
-1.44832e-06
-4.20401e-08
-1.41064e-06
-3.75314e-08
-1.37504e-06
-3.53432e-08
-1.33842e-06
-3.63407e-08
-1.3024e-06
-3.58014e-08
-1.26722e-06
-3.51216e-08
-1.2323e-06
-3.50284e-08
-1.19785e-06
-3.47191e-08
-1.16407e-06
-3.41993e-08
-1.13081e-06
-3.37475e-08
-1.09795e-06
-3.33532e-08
-1.06542e-06
-3.29422e-08
-1.03333e-06
-3.23627e-08
-1.00151e-06
-3.19241e-08
-9.70462e-07
-3.09789e-08
-9.39196e-07
-3.10425e-08
-9.09023e-07
-2.98481e-08
-8.79556e-07
-2.91034e-08
-8.50715e-07
-2.84933e-08
-8.23323e-07
-2.70999e-08
-7.96407e-07
-2.67158e-08
-7.69859e-07
-2.64653e-08
-7.42653e-07
-2.72442e-08
-7.16039e-07
-2.67517e-08
-6.90601e-07
-2.56411e-08
-6.6539e-07
-2.5435e-08
-6.40636e-07
-2.4956e-08
-6.16285e-07
-2.44943e-08
-5.92147e-07
-2.41938e-08
-5.68374e-07
-2.37213e-08
-5.45036e-07
-2.3171e-08
-5.2207e-07
-2.26808e-08
-4.99558e-07
-2.21194e-08
-4.77529e-07
-2.15461e-08
-4.55984e-07
-2.09976e-08
-4.34951e-07
-2.04497e-08
-4.14475e-07
-1.98882e-08
-3.946e-07
-1.93105e-08
-3.75319e-07
-1.87635e-08
-3.56621e-07
-1.82454e-08
-3.38493e-07
-1.77481e-08
-3.20937e-07
-1.72517e-08
-3.03947e-07
-1.67616e-08
-2.87488e-07
-1.6298e-08
-2.71532e-07
-1.58545e-08
-2.56072e-07
-1.54068e-08
-2.41085e-07
-1.49706e-08
-2.26528e-07
-1.45629e-08
-2.12376e-07
-1.41696e-08
-1.98618e-07
-1.37753e-08
-1.85242e-07
-1.33845e-08
-1.72224e-07
-1.30104e-08
-1.59559e-07
-1.26365e-08
-1.47246e-07
-1.22594e-08
-1.35275e-07
-1.189e-08
-1.23632e-07
-1.15321e-08
-1.12319e-07
-1.11748e-08
-1.01333e-07
-1.08221e-08
-9.06704e-08
-1.04782e-08
-8.03353e-08
-1.01339e-08
-7.03361e-08
-9.78574e-09
-6.06619e-08
-9.45255e-09
-5.12962e-08
-9.13903e-09
-4.22401e-08
-8.82732e-09
-3.3502e-08
-8.50966e-09
-2.50777e-08
-8.19854e-09
-1.6949e-08
-7.90755e-09
-9.10755e-09
-7.6264e-09
-1.55878e-09
-7.34069e-09
5.69612e-09
-7.05426e-09
1.26766e-08
-6.78724e-09
1.94004e-08
-6.53764e-09
2.58631e-08
-6.2828e-09
3.20616e-08
-6.02379e-09
3.80118e-08
-5.7795e-09
4.37272e-08
-5.54746e-09
4.92054e-08
-5.31209e-09
5.44461e-08
-5.07628e-09
5.94619e-08
-4.85359e-09
6.42606e-08
-4.63981e-09
6.88402e-08
-4.4252e-09
7.3204e-08
-4.21421e-09
7.7366e-08
-4.01707e-09
8.13366e-08
-3.82934e-09
8.51154e-08
-3.63995e-09
8.87028e-08
-3.44978e-09
9.21066e-08
-3.26672e-09
9.53339e-08
-3.09087e-09
9.83856e-08
-2.91666e-09
1.01262e-07
-2.7441e-09
1.0397e-07
-2.5787e-09
1.06518e-07
-2.42319e-09
1.08912e-07
-2.2739e-09
1.11152e-07
-2.12529e-09
1.13239e-07
-1.97646e-09
1.15176e-07
-1.83085e-09
1.16968e-07
-1.68934e-09
1.1862e-07
-1.54987e-09
1.20134e-07
-1.41275e-09
1.21516e-07
-1.27937e-09
1.2277e-07
-1.1493e-09
1.23901e-07
-1.02287e-09
1.24913e-07
-9.02046e-10
1.25811e-07
-7.87075e-10
1.26598e-07
-6.78142e-10
1.27279e-07
-5.77022e-10
1.27859e-07
-4.84413e-10
1.28341e-07
-3.97056e-10
1.2873e-07
-3.14039e-10
1.29033e-07
-2.3704e-10
1.29254e-07
-1.6174e-10
1.2939e-07
-7.99662e-11
1.29439e-07
8.04685e-12
1.29404e-07
9.4111e-11
1.29292e-07
1.7611e-10
1.29103e-07
2.5903e-10
1.28834e-07
3.41787e-10
1.28495e-07
4.16193e-10
1.28094e-07
4.80439e-10
1.27631e-07
5.42245e-10
1.27104e-07
6.05282e-10
1.26517e-07
6.64299e-10
1.25874e-07
7.16838e-10
1.25178e-07
7.68559e-10
1.24424e-07
8.22993e-10
1.23617e-07
8.74786e-10
1.22766e-07
9.18186e-10
1.21877e-07
9.55438e-10
1.20952e-07
9.91176e-10
1.19992e-07
1.02531e-09
1.19002e-07
1.05579e-09
1.17981e-07
1.08356e-09
1.16932e-07
1.11032e-09
1.15855e-07
1.1356e-09
1.14751e-07
1.15923e-09
1.13621e-07
1.18333e-09
1.12465e-07
1.20888e-09
1.11286e-07
1.2329e-09
1.10092e-07
1.25155e-09
1.08888e-07
1.26478e-09
1.07677e-07
1.27553e-09
1.06456e-07
1.28603e-09
1.05225e-07
1.29685e-09
1.0398e-07
1.30814e-09
1.02718e-07
1.31964e-09
1.01441e-07
1.32932e-09
1.00152e-07
1.33519e-09
9.88556e-08
1.33885e-09
9.75508e-08
1.34473e-09
9.62358e-08
1.35419e-09
9.49135e-08
1.3621e-09
9.35923e-08
1.36213e-09
9.22792e-08
1.35482e-09
9.09737e-08
1.34736e-09
8.96703e-08
1.34445e-09
8.8368e-08
1.34178e-09
8.70742e-08
1.33159e-09
8.57972e-08
1.31317e-09
8.45377e-08
1.29434e-09
8.3289e-08
1.28265e-09
8.20439e-08
1.27827e-09
8.07991e-08
1.27669e-09
7.95541e-08
1.27514e-09
7.83078e-08
1.27355e-09
7.70606e-08
1.27099e-09
7.5815e-08
1.26548e-09
7.45737e-08
1.25721e-09
7.33384e-08
1.24782e-09
7.21121e-08
1.23656e-09
7.09005e-08
1.22093e-09
6.97079e-08
1.20179e-09
6.85342e-08
1.1838e-09
6.73757e-08
1.16956e-09
6.62293e-08
1.15802e-09
6.50933e-08
1.14758e-09
6.39655e-08
1.13841e-09
6.28436e-08
1.1309e-09
6.17261e-08
1.12452e-09
6.0612e-08
1.11913e-09
5.95001e-08
1.11546e-09
5.839e-08
1.11281e-09
5.72851e-08
1.10763e-09
5.6192e-08
1.09634e-09
5.51174e-08
1.07906e-09
5.40649e-08
1.05849e-09
5.30356e-08
1.03674e-09
5.20306e-08
1.01385e-09
5.10514e-08
9.89079e-10
5.00987e-08
9.62846e-10
4.91715e-08
9.36952e-10
4.82665e-08
9.13671e-10
4.73795e-08
8.938e-10
4.65071e-08
8.76939e-10
4.56445e-08
8.64492e-10
4.47871e-08
8.56884e-10
4.39316e-08
8.52751e-10
4.30778e-08
8.49419e-10
4.22277e-08
8.44593e-10
4.13842e-08
8.37614e-10
4.05495e-08
8.29124e-10
3.97252e-08
8.19629e-10
3.89132e-08
8.08502e-10
3.81168e-08
7.94448e-10
3.73402e-08
7.76516e-10
3.65871e-08
7.5467e-10
3.58601e-08
7.303e-10
3.51594e-08
7.05372e-10
3.44836e-08
6.81593e-10
3.38302e-08
6.60061e-10
3.31956e-08
6.41415e-10
3.25763e-08
6.25983e-10
3.19688e-08
6.13544e-10
3.13702e-08
6.03668e-10
3.07783e-08
5.95389e-10
3.01925e-08
5.87445e-10
2.96136e-08
5.78603e-10
2.90432e-08
5.6787e-10
2.84838e-08
5.54756e-10
2.79377e-08
5.39477e-10
2.74065e-08
5.22907e-10
2.68907e-08
5.05987e-10
2.63909e-08
4.89021e-10
2.59076e-08
4.71776e-10
2.54413e-08
4.54486e-10
2.49904e-08
4.39057e-10
2.45499e-08
4.28885e-10
2.41125e-08
4.26124e-10
2.36733e-08
4.28434e-10
2.32324e-08
4.30475e-10
2.27945e-08
4.2804e-10
2.23635e-08
4.21443e-10
2.19412e-08
4.13173e-10
2.15291e-08
4.03141e-10
2.11324e-08
3.88017e-10
2.07575e-08
3.66332e-10
2.04064e-08
3.42719e-10
2.00728e-08
3.25178e-10
1.97478e-08
3.16539e-10
1.94271e-08
3.12316e-10
1.91099e-08
3.0881e-10
1.8794e-08
3.07515e-10
1.84743e-08
3.11296e-10
1.81476e-08
3.18391e-10
1.78162e-08
3.22988e-10
1.74861e-08
3.21868e-10
1.71611e-08
3.16859e-10
1.6843e-08
3.10097e-10
1.65343e-08
3.00842e-10
1.62376e-08
2.89041e-10
1.59522e-08
2.77959e-10
1.56743e-08
2.70726e-10
1.54e-08
2.67455e-10
1.51259e-08
2.67642e-10
1.4848e-08
2.71945e-10
1.45634e-08
2.79271e-10
1.42735e-08
2.85164e-10
1.39836e-08
2.857e-10
1.36985e-08
2.81212e-10
1.34209e-08
2.7399e-10
1.31526e-08
2.64721e-10
1.28955e-08
2.53391e-10
1.26491e-08
2.4243e-10
1.24088e-08
2.35928e-10
1.21684e-08
2.35914e-10
1.1923e-08
2.40533e-10
1.16716e-08
2.46318e-10
1.14156e-08
2.50866e-10
1.11573e-08
2.5298e-10
1.09006e-08
2.51358e-10
1.06505e-08
2.44811e-10
1.04113e-08
2.33916e-10
1.01845e-08
2.21694e-10
9.96758e-09
2.11817e-10
9.75658e-09
2.06072e-10
9.54838e-09
2.03419e-10
9.3421e-09
2.01648e-10
9.13772e-09
1.99927e-10
8.93486e-09
1.98619e-10
8.73448e-09
1.96363e-10
8.54084e-09
1.89895e-10
8.35916e-09
1.78224e-10
8.19126e-09
1.64741e-10
8.03363e-09
1.54746e-10
7.87985e-09
1.51146e-10
7.72358e-09
1.53843e-10
7.56085e-09
1.60458e-10
7.39199e-09
1.667e-10
7.22132e-09
1.68562e-10
7.05424e-09
1.64985e-10
6.89463e-09
1.57479e-10
6.74382e-09
1.48606e-10
6.59973e-09
1.41792e-10
6.45705e-09
1.40267e-10
6.30984e-09
1.44683e-10
6.15413e-09
1.53091e-10
5.98891e-09
1.6255e-10
5.8167e-09
1.69522e-10
5.64384e-09
1.7022e-10
5.47845e-09
1.62836e-10
5.32564e-09
1.50374e-10
5.18393e-09
1.39431e-10
5.047e-09
1.34796e-10
4.90983e-09
1.35199e-10
4.77196e-09
1.36034e-10
4.63337e-09
1.36903e-10
4.49484e-09
1.36981e-10
4.3616e-09
1.31815e-10
4.2373e-09
1.23e-10
4.11898e-09
1.17139e-10
4.00086e-09
1.17029e-10
3.87908e-09
1.20779e-10
3.75403e-09
1.24104e-10
3.63092e-09
1.22202e-10
3.51482e-09
1.15202e-10
3.40567e-09
1.0821e-10
3.3017e-09
1.02983e-10
3.20193e-09
9.87227e-11
3.10269e-09
9.81107e-11
3.00319e-09
9.8333e-11
2.9065e-09
9.54899e-11
2.81494e-09
9.03687e-11
2.7182e-09
9.56084e-11
2.61356e-09
1.03574e-10
2.50489e-09
1.07688e-10
2.39493e-09
1.09059e-10
2.29751e-09
9.66024e-11
2.20953e-09
8.72315e-11
2.12881e-09
8.00116e-11
2.05818e-09
6.99661e-11
1.99453e-09
6.29909e-11
1.9408e-09
5.30748e-11
1.89417e-09
4.59556e-11
1.86759e-09
2.58973e-11
1.84546e-09
2.14258e-11
1.82221e-09
2.25443e-11
1.7851e-09
3.64236e-11
1.74154e-09
4.2894e-11
1.7057e-09
3.52277e-11
1.6689e-09
3.62449e-11
1.65615e-09
1.22571e-11
1.6287e-09
2.70458e-11
1.57004e-09
5.83231e-11
1.51579e-09
5.39763e-11
1.46566e-09
4.98976e-11
1.43709e-09
2.83262e-11
1.39934e-09
3.7448e-11
1.36645e-09
3.24542e-11
1.35886e-09
6.95031e-12
1.36513e-09
-7.1394e-12
1.397e-09
-3.2985e-11
1.39468e-09
9.99543e-13
1.41864e-09
-2.53902e-11
1.40943e-09
7.76834e-12
1.39351e-09
1.45695e-11
1.35649e-09
3.58552e-11
1.33995e-09
1.55989e-11
1.3671e-09
-2.7883e-11
1.34285e-09
2.36402e-11
1.36339e-09
-2.11041e-11
1.40344e-09
-4.0674e-11
1.39367e-09
9.03016e-12
1.37356e-09
1.92266e-11
1.3097e-09
6.28596e-11
1.3088e-09
-1.79884e-13
1.23733e-09
7.03166e-11
1.20378e-09
3.22785e-11
1.27736e-09
-7.48066e-11
1.29161e-09
-1.59831e-11
1.59994e-09
-3.1001e-10
1.80696e-09
-2.09041e-10
1.79788e-09
6.58994e-12
1.80683e-09
-1.12293e-11
1.74711e-09
5.7476e-11
1.66252e-09
8.23491e-11
1.56897e-09
9.13199e-11
1.44761e-09
1.19139e-10
1.28916e-09
1.56282e-10
1.10825e-09
1.78813e-10
9.15775e-10
1.90504e-10
7.15246e-10
1.9871e-10
5.21832e-10
1.91751e-10
3.55865e-10
1.64434e-10
2.21042e-10
1.33372e-10
9.98639e-11
1.19751e-10
-2.63646e-11
1.24779e-10
-1.55608e-10
1.27743e-10
-2.73114e-10
1.15949e-10
-3.67549e-10
9.28331e-11
-4.40228e-10
7.10548e-11
-5.00988e-10
5.91397e-11
-5.62866e-10
6.02811e-11
-6.37734e-10
7.33056e-11
-7.32481e-10
9.32163e-11
-8.46718e-10
1.12732e-10
-9.75753e-10
1.27543e-10
-1.11236e-09
1.3512e-10
-1.24856e-09
1.34697e-10
-1.37596e-09
1.25887e-10
-1.4845e-09
1.07013e-10
-1.56208e-09
7.60534e-11
-1.59498e-09
3.13773e-11
-1.57547e-09
-2.10384e-11
-1.49586e-09
-8.11161e-11
-1.3627e-09
-1.34657e-10
-1.1869e-09
-1.77278e-10
-9.83887e-10
-2.04488e-10
-7.68862e-10
-2.16493e-10
-5.53484e-10
-2.16845e-10
-3.46017e-10
-2.08936e-10
-1.53261e-10
-1.94229e-10
1.6328e-11
-1.71065e-10
1.52607e-10
-1.37759e-10
2.46227e-10
-9.51014e-11
2.95921e-10
-5.11765e-11
3.10151e-10
-1.5713e-11
3.08221e-10
4.46035e-13
3.08647e-10
-1.91363e-12
3.28036e-10
-2.08828e-11
3.82377e-10
-5.58474e-11
4.84069e-10
-1.03213e-10
6.34192e-10
-1.51663e-10
8.13798e-10
-1.81165e-10
9.78854e-10
-1.66631e-10
1.07918e-09
-1.01912e-10
1.10087e-09
-2.32852e-11
1.08957e-09
9.69413e-12
1.12479e-09
-3.68058e-11
1.25936e-09
-1.36145e-10
1.43037e-09
-1.72574e-10
1.50022e-09
-7.13817e-11
1.38978e-09
1.08928e-10
1.1604e-09
2.27901e-10
9.807e-10
1.78238e-10
9.68284e-10
1.09752e-11
9.92403e-10
-2.55418e-11
8.82567e-10
1.08428e-10
6.38634e-10
2.4254e-10
4.68785e-10
1.68472e-10
5.3471e-10
-6.7292e-11
6.73721e-10
-1.40376e-10
6.74519e-10
-2.18082e-12
6.63022e-10
1.00694e-11
8.4979e-10
-1.88265e-10
1.14551e-09
-2.97297e-10
1.20222e-09
-5.83452e-11
1.08487e-09
1.15686e-10
1.03163e-09
5.16291e-11
8.20006e-10
2.10101e-10
6.15995e-10
2.02524e-10
3.68384e-10
-1.37506e-05
6.62641e-09
-1.38139e-05
1.18569e-07
-1.38762e-05
1.21978e-07
-1.39338e-05
9.71278e-08
-1.39806e-05
8.71608e-08
-1.40162e-05
7.73575e-08
-1.40396e-05
5.65974e-08
-1.40553e-05
3.66593e-08
-1.4065e-05
2.18236e-08
-1.40667e-05
7.13819e-09
-1.40636e-05
-6.10001e-09
-1.40554e-05
-1.70166e-08
-1.40429e-05
-2.98738e-08
-1.40247e-05
-3.46013e-08
-1.40019e-05
-4.41743e-08
-1.39741e-05
-5.37038e-08
-1.39404e-05
-6.3371e-08
-1.39006e-05
-7.57638e-08
-1.38548e-05
-8.80619e-08
-1.38028e-05
-9.9389e-08
-1.37447e-05
-1.1071e-07
-1.36811e-05
-1.21792e-07
-1.3612e-05
-1.32446e-07
-1.35376e-05
-1.4196e-07
-1.34581e-05
-1.50461e-07
-1.33738e-05
-1.58777e-07
-1.32843e-05
-1.69092e-07
-1.31905e-05
-1.78462e-07
-1.30932e-05
-1.85653e-07
-1.29921e-05
-1.93032e-07
-1.28862e-05
-2.01641e-07
-1.27801e-05
-2.05814e-07
-1.26697e-05
-2.15527e-07
-1.25507e-05
-2.29954e-07
-1.2428e-05
-2.37903e-07
-1.23024e-05
-2.44481e-07
-1.2173e-05
-2.52851e-07
-1.20433e-05
-2.58256e-07
-1.19085e-05
-2.6788e-07
-1.17671e-05
-2.78288e-07
-1.16228e-05
-2.83758e-07
-1.1476e-05
-2.88593e-07
-1.13268e-05
-2.96914e-07
-1.11743e-05
-3.04249e-07
-1.10191e-05
-3.07419e-07
-1.08623e-05
-3.11974e-07
-1.07042e-05
-3.18386e-07
-1.05449e-05
-3.24597e-07
-1.03844e-05
-3.30028e-07
-1.02226e-05
-3.34915e-07
-1.00589e-05
-3.39651e-07
-9.89274e-06
-3.46728e-07
-9.72405e-06
-3.53226e-07
-9.55265e-06
-3.58381e-07
-9.37855e-06
-3.62501e-07
-9.20246e-06
-3.64808e-07
-9.02466e-06
-3.66332e-07
-8.84581e-06
-3.67544e-07
-8.66672e-06
-3.67188e-07
-8.48776e-06
-3.6593e-07
-8.30892e-06
-3.65703e-07
-8.13014e-06
-3.65792e-07
-7.95093e-06
-3.66419e-07
-7.7708e-06
-3.6793e-07
-7.58905e-06
-3.70892e-07
-7.40505e-06
-3.75117e-07
-7.21821e-06
-3.80723e-07
-7.02796e-06
-3.87843e-07
-6.8337e-06
-3.96496e-07
-6.63468e-06
-4.07358e-07
-6.42989e-06
-4.21842e-07
-6.21833e-06
-4.42246e-07
-5.99989e-06
-4.71446e-07
-5.77555e-06
-5.13137e-07
-5.55251e-06
-5.70397e-07
-5.34826e-06
-6.47489e-07
-5.21617e-06
-7.45105e-07
-5.25854e-06
-8.66976e-07
-5.06845e-06
-9.18539e-07
-4.40213e-06
-9.39334e-07
-3.45697e-06
-1.07531e-06
-2.63008e-06
-8.06018e-07
-2.31862e-06
-3.61981e-07
-2.13713e-06
-2.01385e-07
-2.09805e-06
-3.35168e-08
-2.0344e-06
-1.22598e-07
-1.98133e-06
-1.07864e-07
-1.95414e-06
-7.2212e-08
-1.95154e-06
-3.46943e-08
-1.90338e-06
-8.57694e-08
-1.86017e-06
-7.94404e-08
-1.82624e-06
-6.95224e-08
-1.78652e-06
-7.82957e-08
-1.74819e-06
-7.78292e-08
-1.71007e-06
-7.79719e-08
-1.6702e-06
-8.16708e-08
-1.63049e-06
-8.28079e-08
-1.592e-06
-8.34057e-08
-1.55491e-06
-8.55218e-08
-1.51659e-06
-8.54687e-08
-1.47402e-06
-8.44321e-08
-1.42631e-06
-8.49935e-08
-1.37933e-06
-8.21194e-08
-1.33837e-06
-7.7236e-08
-1.30137e-06
-7.30038e-08
-1.26675e-06
-7.02461e-08
-1.23127e-06
-7.12529e-08
-1.19625e-06
-7.06539e-08
-1.16193e-06
-6.94927e-08
-1.12831e-06
-6.83011e-08
-1.0951e-06
-6.73245e-08
-1.06229e-06
-6.62623e-08
-1.02995e-06
-6.49335e-08
-9.98065e-07
-6.37697e-08
-9.66498e-07
-6.22882e-08
-9.35967e-07
-6.11671e-08
-9.06341e-07
-5.9016e-08
-8.7759e-07
-5.74437e-08
-8.48246e-07
-5.75367e-08
-8.19162e-07
-5.604e-08
-7.90995e-07
-5.49178e-08
-7.63789e-07
-5.38766e-08
-7.38468e-07
-5.29086e-08
-7.13664e-07
-5.1979e-08
-6.88551e-07
-5.11851e-08
-6.62668e-07
-5.16951e-08
-6.37208e-07
-5.06801e-08
-6.12912e-07
-4.88984e-08
-5.88925e-07
-4.81031e-08
-5.65377e-07
-4.6996e-08
-5.42209e-07
-4.58719e-08
-5.19322e-07
-4.49269e-08
-4.9687e-07
-4.37863e-08
-4.74933e-07
-4.25976e-08
-4.53475e-07
-4.15165e-08
-4.32539e-07
-4.04433e-08
-4.1214e-07
-3.93869e-08
-3.92319e-07
-3.83095e-08
-3.73063e-07
-3.73049e-08
-3.54384e-07
-3.63313e-08
-3.36278e-07
-3.53886e-08
-3.18738e-07
-3.44503e-08
-3.01753e-07
-3.35168e-08
-2.85299e-07
-3.26184e-08
-2.69346e-07
-3.17519e-08
-2.53874e-07
-3.08807e-08
-2.38871e-07
-3.00129e-08
-2.2431e-07
-2.91812e-08
-2.10163e-07
-2.8373e-08
-1.96421e-07
-2.75588e-08
-1.83071e-07
-2.67482e-08
-1.70089e-07
-2.5968e-08
-1.57461e-07
-2.51948e-08
-1.45185e-07
-2.4417e-08
-1.33252e-07
-2.36551e-08
-1.21645e-07
-2.2922e-08
-1.1036e-07
-2.21994e-08
-9.94035e-08
-2.1482e-08
-8.87778e-08
-2.07783e-08
-7.84801e-08
-2.00842e-08
-6.851e-08
-1.93933e-08
-5.88683e-08
-1.87222e-08
-4.95523e-08
-1.80781e-08
-4.05522e-08
-1.74496e-08
-3.18547e-08
-1.68321e-08
-2.34548e-08
-1.62293e-08
-1.53506e-08
-1.5651e-08
-7.53878e-09
-1.50876e-08
-1.68983e-11
-1.4523e-08
7.21678e-09
-1.39594e-08
1.41699e-08
-1.3422e-08
2.08534e-08
-1.29117e-08
2.72744e-08
-1.2402e-08
3.34399e-08
-1.18939e-08
3.93601e-08
-1.14101e-08
4.50442e-08
-1.09472e-08
5.04953e-08
-1.04841e-08
5.57155e-08
-1.00227e-08
6.07116e-08
-9.58155e-09
6.54918e-08
-9.15764e-09
7.00589e-08
-8.73585e-09
7.44152e-08
-8.31967e-09
7.85684e-08
-7.92448e-09
8.25269e-08
-7.54666e-09
8.62938e-08
-7.16969e-09
8.98697e-08
-6.79224e-09
9.32595e-08
-6.42654e-09
9.64695e-08
-6.07461e-09
9.95012e-08
-5.72567e-09
1.02352e-07
-5.37602e-09
1.05026e-07
-5.03555e-09
1.07529e-07
-4.71329e-09
1.09873e-07
-4.40606e-09
1.12063e-07
-4.10475e-09
1.14103e-07
-3.80832e-09
1.16001e-07
-3.52224e-09
1.1776e-07
-3.24414e-09
1.19379e-07
-2.96676e-09
1.20856e-07
-2.69228e-09
1.22199e-07
-2.42781e-09
1.23414e-07
-2.17417e-09
1.24507e-07
-1.92993e-09
1.25483e-07
-1.69729e-09
1.26349e-07
-1.47721e-09
1.2711e-07
-1.26844e-09
1.27771e-07
-1.07165e-09
1.28334e-07
-8.85909e-10
1.28798e-07
-7.05603e-10
1.29165e-07
-5.28884e-10
1.29435e-07
-3.59752e-10
1.29613e-07
-1.95839e-10
1.29703e-07
-2.75873e-11
1.29707e-07
1.4543e-10
1.29631e-07
3.12294e-10
1.29482e-07
4.69348e-10
1.29263e-07
6.24043e-10
1.28975e-07
7.77165e-10
1.28621e-07
9.19081e-10
1.28204e-07
1.04716e-09
1.27723e-07
1.17144e-09
1.27178e-07
1.29697e-09
1.26571e-07
1.41585e-09
1.25907e-07
1.52266e-09
1.25192e-07
1.62372e-09
1.24428e-07
1.72461e-09
1.23618e-07
1.81981e-09
1.22768e-07
1.9026e-09
1.21878e-07
1.97659e-09
1.2095e-07
2.04867e-09
1.19982e-07
2.11857e-09
1.18977e-07
2.18249e-09
1.17938e-07
2.24076e-09
1.16868e-07
2.29497e-09
1.15772e-07
2.34345e-09
1.14657e-07
2.3853e-09
1.13527e-07
2.42425e-09
1.12383e-07
2.46391e-09
1.11227e-07
2.50239e-09
1.10057e-07
2.53582e-09
1.08872e-07
2.56424e-09
1.0767e-07
2.59045e-09
1.0645e-07
2.61541e-09
1.05213e-07
2.6387e-09
1.03959e-07
2.66164e-09
1.02686e-07
2.68589e-09
1.01395e-07
2.70894e-09
1.00088e-07
2.72488e-09
9.87752e-08
2.73174e-09
9.74626e-08
2.73489e-09
9.6153e-08
2.74009e-09
9.48452e-08
2.74518e-09
9.35393e-08
2.74247e-09
9.22378e-08
2.72968e-09
9.09427e-08
2.71452e-09
8.96521e-08
2.70551e-09
8.83618e-08
2.70063e-09
8.70703e-08
2.68975e-09
8.57797e-08
2.66818e-09
8.44931e-08
2.64282e-09
8.32115e-08
2.62288e-09
8.19355e-08
2.60911e-09
8.06667e-08
2.59555e-09
7.94071e-08
2.5794e-09
7.81567e-08
2.56303e-09
7.69139e-08
2.54736e-09
7.56788e-08
2.52949e-09
7.44528e-08
2.50834e-09
7.32371e-08
2.48634e-09
7.20313e-08
2.46387e-09
7.08354e-08
2.43804e-09
6.96496e-08
2.40898e-09
6.84732e-08
2.38158e-09
6.73053e-08
2.35846e-09
6.61456e-08
2.33753e-09
6.49944e-08
2.31681e-09
6.3851e-08
2.29748e-09
6.27145e-08
2.28037e-09
6.1586e-08
2.26363e-09
6.04682e-08
2.24585e-09
5.93631e-08
2.22839e-09
5.82716e-08
2.21222e-09
5.71937e-08
2.19426e-09
5.61303e-08
2.16982e-09
5.50831e-08
2.13782e-09
5.40533e-08
2.10117e-09
5.3041e-08
2.06262e-09
5.20461e-08
2.02211e-09
5.1069e-08
1.97825e-09
5.01101e-08
1.93152e-09
4.91687e-08
1.88478e-09
4.82434e-08
1.84131e-09
4.73325e-08
1.80255e-09
4.64345e-08
1.76832e-09
4.55487e-08
1.73968e-09
4.46747e-08
1.71712e-09
4.38119e-08
1.69958e-09
4.29602e-08
1.68436e-09
4.21196e-08
1.66866e-09
4.12911e-08
1.65112e-09
4.04758e-08
1.6318e-09
3.96749e-08
1.61086e-09
3.88897e-08
1.58748e-09
3.81213e-08
1.56009e-09
3.73707e-08
1.52758e-09
3.66385e-08
1.49016e-09
3.59249e-08
1.44958e-09
3.52293e-08
1.40822e-09
3.45507e-08
1.36826e-09
3.38879e-08
1.33108e-09
3.32394e-08
1.29737e-09
3.26041e-08
1.26727e-09
3.19811e-08
1.24037e-09
3.13699e-08
1.21596e-09
3.07702e-08
1.19299e-09
3.01819e-08
1.17022e-09
2.96051e-08
1.14642e-09
2.90401e-08
1.12039e-09
2.84879e-08
1.09131e-09
2.79498e-08
1.05927e-09
2.74264e-08
1.0257e-09
2.69173e-08
9.92966e-10
2.64202e-08
9.63028e-10
2.59321e-08
9.36216e-10
2.54515e-08
9.11455e-10
2.49787e-08
8.88468e-10
2.45154e-08
8.69559e-10
2.40615e-08
8.5804e-10
2.36153e-08
8.5359e-10
2.31748e-08
8.5068e-10
2.27412e-08
8.4218e-10
2.23179e-08
8.25921e-10
2.19073e-08
8.05513e-10
2.15085e-08
7.84109e-10
2.11197e-08
7.59305e-10
2.07415e-08
7.27324e-10
2.03756e-08
6.91587e-10
2.00211e-08
6.62681e-10
1.96737e-08
6.47082e-10
1.93291e-08
6.40084e-10
1.89873e-08
6.33976e-10
1.86502e-08
6.27937e-10
1.83185e-08
6.26542e-10
1.79904e-08
6.30137e-10
1.76652e-08
6.31983e-10
1.73444e-08
6.26725e-10
1.70293e-08
6.16362e-10
1.67195e-08
6.04581e-10
1.64147e-08
5.90748e-10
1.6115e-08
5.74272e-10
1.58199e-08
5.59228e-10
1.55277e-08
5.49588e-10
1.52379e-08
5.44615e-10
1.49506e-08
5.42933e-10
1.46653e-08
5.4584e-10
1.43812e-08
5.52453e-10
1.40996e-08
5.56336e-10
1.38237e-08
5.5155e-10
1.35559e-08
5.39263e-10
1.32955e-08
5.24737e-10
1.30402e-08
5.10516e-10
1.2788e-08
4.96088e-10
1.25381e-08
4.82884e-10
1.22893e-08
4.75055e-10
1.20406e-08
4.74892e-10
1.17916e-08
4.79795e-10
1.15431e-08
4.84905e-10
1.1297e-08
4.87095e-10
1.10546e-08
4.85459e-10
1.0817e-08
4.79291e-10
1.05846e-08
4.67664e-10
1.0358e-08
4.51222e-10
1.01374e-08
4.33362e-10
9.92183e-09
4.18725e-10
9.70959e-09
4.09953e-10
9.49957e-09
4.05374e-10
9.29277e-09
4.00662e-10
9.09153e-09
3.93669e-10
8.89699e-09
3.85971e-10
8.70843e-09
3.78077e-10
8.52518e-09
3.66677e-10
8.34711e-09
3.50231e-10
8.17283e-09
3.33342e-10
7.99966e-09
3.22586e-10
7.8258e-09
3.19961e-10
7.65169e-09
3.23085e-10
7.47914e-09
3.28204e-10
7.31041e-09
3.30613e-10
7.1476e-09
3.26432e-10
6.99146e-09
3.16033e-10
6.8404e-09
3.0326e-10
6.69123e-09
2.92325e-10
6.5405e-09
2.86933e-10
6.38595e-09
2.8914e-10
6.22769e-09
2.97249e-10
6.06756e-09
3.07587e-10
5.90816e-09
3.16433e-10
5.75205e-09
3.20293e-10
5.60036e-09
3.16778e-10
5.45234e-09
3.05979e-10
5.30638e-09
2.91728e-10
5.16078e-09
2.80698e-10
5.01447e-09
2.77056e-10
4.86907e-09
2.76815e-10
4.7291e-09
2.72481e-10
4.59644e-09
2.6631e-10
4.46827e-09
2.62149e-10
4.3412e-09
2.56131e-10
4.21285e-09
2.48821e-10
4.08337e-09
2.44279e-10
3.95532e-09
2.42895e-10
3.83062e-09
2.434e-10
3.71064e-09
2.42052e-10
3.59654e-09
2.3428e-10
3.48854e-09
2.21132e-10
3.3833e-09
2.11325e-10
3.27798e-09
2.06093e-10
3.17244e-09
2.01989e-10
3.06768e-09
2.00546e-10
2.96379e-09
1.99887e-10
2.86228e-09
1.94703e-10
2.76466e-09
1.85753e-10
2.66923e-09
1.88921e-10
2.57715e-09
1.93652e-10
2.48276e-09
2.00207e-10
2.38633e-09
2.03737e-10
2.30347e-09
1.77825e-10
2.24098e-09
1.48176e-10
2.18732e-09
1.32178e-10
2.12404e-09
1.31788e-10
2.05209e-09
1.33489e-10
1.98442e-09
1.19296e-10
1.92826e-09
1.00633e-10
1.88428e-09
6.83792e-11
1.83986e-09
6.43225e-11
1.80278e-09
5.80984e-11
1.76067e-09
7.70314e-11
1.72184e-09
8.02763e-11
1.68247e-09
7.32388e-11
1.64578e-09
7.1696e-11
1.61734e-09
3.96071e-11
1.58317e-09
6.02752e-11
1.53424e-09
1.06437e-10
1.49663e-09
9.08599e-11
1.46129e-09
8.44902e-11
1.4483e-09
4.04756e-11
1.43235e-09
5.23439e-11
1.4144e-09
4.90242e-11
1.40584e-09
1.37582e-11
1.39939e-09
-2.79703e-12
1.38369e-09
-1.96755e-11
1.35348e-09
2.8643e-11
1.36369e-09
-3.81554e-11
1.36862e-09
4.39269e-13
1.35005e-09
3.10182e-11
1.35846e-09
2.56521e-11
1.37329e-09
-7.45782e-13
1.37342e-09
-2.93505e-11
1.3899e-09
5.851e-12
1.37137e-09
-3.97788e-12
1.31513e-09
1.40205e-11
1.32817e-09
-5.75513e-12
1.2963e-09
4.91933e-11
1.22136e-09
1.3573e-10
1.31822e-09
-9.91657e-11
1.40529e-09
-1.97259e-11
1.74921e-09
-3.14574e-10
2.07083e-09
-4.00324e-10
2.24692e-09
-1.97067e-10
2.22292e-09
-2.90862e-10
2.01482e-09
-6.05639e-12
1.98596e-09
3.06167e-11
1.94918e-09
2.0775e-11
1.86639e-09
1.35534e-10
1.76567e-09
1.78381e-10
1.63599e-09
2.16371e-10
1.46849e-09
2.82092e-10
1.31045e-09
3.09944e-10
1.18136e-09
3.03752e-10
1.05474e-09
3.1327e-10
9.15062e-10
3.34834e-10
7.73318e-10
3.30201e-10
6.35974e-10
2.98665e-10
4.94668e-10
2.7165e-10
3.43561e-10
2.67833e-10
1.94302e-10
2.70962e-10
6.34743e-11
2.55425e-10
-4.02529e-11
2.16475e-10
-1.18373e-10
1.67728e-10
-1.80082e-10
1.29551e-10
-2.38456e-10
1.1434e-10
-3.05176e-10
1.23881e-10
-3.88066e-10
1.53126e-10
-4.87432e-10
1.89549e-10
-5.98126e-10
2.2041e-10
-7.08912e-10
2.35309e-10
-8.09246e-10
2.32419e-10
-8.92157e-10
2.14552e-10
-9.53144e-10
1.838e-10
-9.89878e-10
1.40666e-10
-1.00169e-09
8.47871e-11
-9.90089e-10
1.67238e-11
-9.55019e-10
-5.91351e-11
-9.00534e-10
-1.38594e-10
-8.27656e-10
-2.10493e-10
-7.3666e-10
-2.71204e-10
-6.2766e-10
-3.164e-10
-5.0132e-10
-3.45738e-10
-3.60491e-10
-3.60583e-10
-2.12095e-10
-3.60252e-10
-6.70789e-11
-3.42182e-10
6.08692e-11
-3.01969e-10
1.60359e-10
-2.40223e-10
2.29977e-10
-1.67708e-10
2.74769e-10
-9.89672e-11
3.10803e-10
-5.4754e-11
3.47719e-10
-3.94822e-11
3.908e-10
-4.80099e-11
4.43335e-10
-7.64381e-11
5.0875e-10
-1.2429e-10
5.93929e-10
-1.91427e-10
7.04302e-10
-2.65081e-10
8.31391e-10
-3.11306e-10
9.49021e-10
-2.87318e-10
1.03417e-09
-1.90115e-10
1.08802e-09
-8.01805e-11
1.13912e-09
-4.44263e-11
1.21901e-09
-1.19702e-10
1.30103e-09
-2.21133e-10
1.32402e-09
-1.9849e-10
1.24964e-09
1.02024e-13
1.11846e-09
2.37254e-10
1.04482e-09
2.98699e-10
1.08825e-09
1.31999e-10
1.1245e-09
-2.8066e-11
1.0459e-09
5.02769e-11
8.60244e-10
2.91333e-10
7.55485e-10
3.44561e-10
8.33556e-10
8.76765e-11
9.03963e-10
-1.40427e-10
8.13121e-10
-5.22932e-11
7.37789e-10
7.03272e-11
8.32584e-10
-8.76464e-11
9.12219e-10
-2.70924e-10
7.73791e-10
-1.61971e-10
6.58849e-10
5.34828e-11
6.21247e-10
1.50239e-10
5.35796e-10
1.34139e-10
4.83341e-10
2.59674e-10
5.74997e-10
1.07915e-10
6.95437e-10
-1.37812e-05
3.18291e-08
-1.38576e-05
1.91306e-07
-1.39149e-05
1.77059e-07
-1.39696e-05
1.50128e-07
-1.40166e-05
1.3271e-07
-1.40499e-05
1.09718e-07
-1.40751e-05
8.135e-08
-1.40969e-05
5.77221e-08
-1.41119e-05
3.59136e-08
-1.412e-05
1.49361e-08
-1.41228e-05
-3.12049e-09
-1.41194e-05
-2.0341e-08
-1.41129e-05
-3.63874e-08
-1.40967e-05
-5.05268e-08
-1.40747e-05
-6.54142e-08
-1.4047e-05
-8.06985e-08
-1.40113e-05
-9.8417e-08
-1.39701e-05
-1.16376e-07
-1.39233e-05
-1.34076e-07
-1.38701e-05
-1.51584e-07
-1.38107e-05
-1.68982e-07
-1.37453e-05
-1.85923e-07
-1.36749e-05
-2.01466e-07
-1.35988e-05
-2.16604e-07
-1.35169e-05
-2.30954e-07
-1.34292e-05
-2.45182e-07
-1.33363e-05
-2.60536e-07
-1.32393e-05
-2.73778e-07
-1.31384e-05
-2.84728e-07
-1.30323e-05
-2.97248e-07
-1.29225e-05
-3.09574e-07
-1.281e-05
-3.16455e-07
-1.2695e-05
-3.28752e-07
-1.25764e-05
-3.46658e-07
-1.24538e-05
-3.58393e-07
-1.23267e-05
-3.69048e-07
-1.21964e-05
-3.80343e-07
-1.20623e-05
-3.89469e-07
-1.19245e-05
-4.02688e-07
-1.1782e-05
-4.1783e-07
-1.16349e-05
-4.27825e-07
-1.14837e-05
-4.36603e-07
-1.13314e-05
-4.45577e-07
-1.11766e-05
-4.54682e-07
-1.10174e-05
-4.6128e-07
-1.08563e-05
-4.66861e-07
-1.06953e-05
-4.72243e-07
-1.05345e-05
-4.77412e-07
-1.03728e-05
-4.82979e-07
-1.02096e-05
-4.88824e-07
-1.00442e-05
-4.95087e-07
-9.87806e-06
-5.02379e-07
-9.71008e-06
-5.10205e-07
-9.53948e-06
-5.17589e-07
-9.36667e-06
-5.23659e-07
-9.1916e-06
-5.28157e-07
-9.01488e-06
-5.3144e-07
-8.83777e-06
-5.33302e-07
-8.66024e-06
-5.33722e-07
-8.48216e-06
-5.33406e-07
-8.30432e-06
-5.3333e-07
-8.12643e-06
-5.33832e-07
-7.94791e-06
-5.35479e-07
-7.76819e-06
-5.38623e-07
-7.58703e-06
-5.43582e-07
-7.40403e-06
-5.50358e-07
-7.21901e-06
-5.58843e-07
-7.03206e-06
-5.68826e-07
-6.84318e-06
-5.80336e-07
-6.65235e-06
-5.93983e-07
-6.46e-06
-6.10694e-07
-6.26737e-06
-6.31993e-07
-6.07638e-06
-6.60087e-07
-5.89076e-06
-6.96829e-07
-5.71652e-06
-7.42868e-07
-5.56417e-06
-7.97967e-07
-5.44873e-06
-8.58896e-07
-5.3966e-06
-9.18303e-07
-5.35117e-06
-9.62248e-07
-5.29225e-06
-9.95586e-07
-5.32116e-06
-1.04429e-06
-5.07931e-06