/*--------------------------------*- C++ -*----------------------------------*\
| =========                 |                                                 |
| \\      /  F ield         | OpenFOAM: The Open Source CFD Toolbox           |
|  \\    /   O peration     | Version:  v2006                                 |
|   \\  /    A nd           | Website:  www.openfoam.com                      |
|    \\/     M anipulation  |                                                 |
\*---------------------------------------------------------------------------*/
FoamFile
{
    version     2.0;
    format      ascii;
    class       volVectorField;
    location    "0.9";
    object      U;
}
// * * * * * * * * * * * * * * * * * * * * * * * * * * * * * * * * * * * * * //

dimensions      [0 1 -1 0 0 0 0];


internalField   nonuniform List<vector> 
33000
(
(-0.0244543 0 7.22224e-05)
(-0.0377435 0 0.000139029)
(-0.0342983 0 0.000162726)
(-0.0346011 0 0.000120472)
(-0.0346487 0 0.000123457)
(-0.0347638 0 0.000122158)
(-0.0348498 0 9.35896e-05)
(-0.0349173 0 6.6662e-05)
(-0.0349595 0 4.14004e-05)
(-0.0349834 0 1.42539e-05)
(-0.034988 0 -5.50698e-06)
(-0.0349742 0 -1.7907e-05)
(-0.0349422 0 -3.55807e-05)
(-0.0349009 0 -3.30799e-05)
(-0.0348532 0 -4.33258e-05)
(-0.034793 0 -5.24578e-05)
(-0.0347223 0 -6.04013e-05)
(-0.0346373 0 -7.39494e-05)
(-0.0345348 0 -8.67144e-05)
(-0.0344172 0 -9.6856e-05)
(-0.0342858 0 -0.000107989)
(-0.0341397 0 -0.00011973)
(-0.0339772 0 -0.000130986)
(-0.0338017 0 -0.000139442)
(-0.0336149 0 -0.00014582)
(-0.0334182 0 -0.000152925)
(-0.0332103 0 -0.000164123)
(-0.0329886 0 -0.000174941)
(-0.032755 0 -0.000183241)
(-0.0325109 0 -0.000190222)
(-0.032257 0 -0.000197989)
(-0.0319934 0 -0.000205331)
(-0.0317191 0 -0.000214958)
(-0.0314321 0 -0.000225541)
(-0.0311344 0 -0.000233293)
(-0.0308284 0 -0.000239831)
(-0.0305135 0 -0.00024811)
(-0.0301886 0 -0.000257069)
(-0.0298544 0 -0.000264698)
(-0.0295128 0 -0.000270884)
(-0.0291669 0 -0.000273645)
(-0.028818 0 -0.000276972)
(-0.0284612 0 -0.000287438)
(-0.0280946 0 -0.000294111)
(-0.0277247 0 -0.000294198)
(-0.0273528 0 -0.000299028)
(-0.0269734 0 -0.000308126)
(-0.0265849 0 -0.000316611)
(-0.0261884 0 -0.000323669)
(-0.025786 0 -0.000329352)
(-0.0253789 0 -0.000334082)
(-0.0249645 0 -0.000343075)
(-0.0245404 0 -0.000350963)
(-0.0241083 0 -0.000356422)
(-0.0236702 0 -0.000360196)
(-0.0232281 0 -0.000361925)
(-0.0227835 0 -0.000362683)
(-0.0223367 0 -0.00036401)
(-0.0218885 0 -0.000363603)
(-0.021441 0 -0.000361549)
(-0.0209939 0 -0.000361553)
(-0.0205461 0 -0.000361983)
(-0.0200973 0 -0.000362521)
(-0.0196469 0 -0.000363903)
(-0.0191934 0 -0.000366867)
(-0.018735 0 -0.000371108)
(-0.0182696 0 -0.000377013)
(-0.0177945 0 -0.00038486)
(-0.0173076 0 -0.000394774)
(-0.0168052 0 -0.00040777)
(-0.0162815 0 -0.000426188)
(-0.0157268 0 -0.000454432)
(-0.0151242 0 -0.000499465)
(-0.014447 0 -0.000575262)
(-0.0136553 0 -0.000703363)
(-0.0126173 0 -0.000932531)
(-0.0112931 0 -0.00135442)
(-0.0108715 0 -0.00212408)
(-0.00608028 0 -0.00098429)
(-0.00633621 0 -0.000163002)
(-0.00539748 0 0.000283454)
(-0.00546895 0 0.000515817)
(-0.00544905 0 -6.90031e-05)
(-0.00529274 0 -0.00013329)
(-0.00532162 0 -0.000119878)
(-0.00526292 0 -0.000127428)
(-0.0050868 0 -9.21302e-05)
(-0.00496269 0 -6.83135e-05)
(-0.00487589 0 -5.04567e-05)
(-0.00478958 0 -6.68673e-05)
(-0.00469801 0 -7.34772e-05)
(-0.0046071 0 -6.98485e-05)
(-0.00451848 0 -7.60447e-05)
(-0.00442266 0 -7.55154e-05)
(-0.00432685 0 -7.82883e-05)
(-0.00422975 0 -8.13264e-05)
(-0.0041256 0 -8.45696e-05)
(-0.00401501 0 -8.93932e-05)
(-0.00392801 0 -9.84821e-05)
(-0.00375887 0 -9.41637e-05)
(-0.00367571 0 -8.17207e-05)
(-0.00357264 0 -7.08267e-05)
(-0.00348116 0 -6.84215e-05)
(-0.00339233 0 -7.14223e-05)
(-0.0033008 0 -7.10108e-05)
(-0.00321142 0 -6.89767e-05)
(-0.0031242 0 -6.91618e-05)
(-0.00303738 0 -6.84736e-05)
(-0.00295198 0 -6.81419e-05)
(-0.00286828 0 -6.73432e-05)
(-0.00278548 0 -6.62994e-05)
(-0.00270407 0 -6.52028e-05)
(-0.00262236 0 -6.37081e-05)
(-0.00254435 0 -6.27688e-05)
(-0.00246202 0 -5.98516e-05)
(-0.00238858 0 -6.02916e-05)
(-0.00231677 0 -5.4217e-05)
(-0.00222789 0 -5.41048e-05)
(-0.00216086 0 -5.67069e-05)
(-0.00209539 0 -6.00597e-05)
(-0.00202256 0 -6.0678e-05)
(-0.00195837 0 -5.37749e-05)
(-0.00189121 0 -5.2475e-05)
(-0.00182225 0 -5.01096e-05)
(-0.00175784 0 -5.04211e-05)
(-0.00169497 0 -5.07422e-05)
(-0.00163206 0 -5.03237e-05)
(-0.00157093 0 -4.89439e-05)
(-0.00151033 0 -4.80254e-05)
(-0.0014503 0 -4.69212e-05)
(-0.00139146 0 -4.59752e-05)
(-0.0013336 0 -4.50634e-05)
(-0.00127671 0 -4.39875e-05)
(-0.00122106 0 -4.28149e-05)
(-0.00116661 0 -4.16882e-05)
(-0.00111338 0 -4.05589e-05)
(-0.00106148 0 -3.94243e-05)
(-0.00101104 0 -3.82736e-05)
(-0.000962116 0 -3.71814e-05)
(-0.000914653 0 -3.6152e-05)
(-0.000868622 0 -3.51631e-05)
(-0.000824012 0 -3.41777e-05)
(-0.000780839 0 -3.32095e-05)
(-0.000739044 0 -3.22974e-05)
(-0.000698525 0 -3.1415e-05)
(-0.000659252 0 -3.05166e-05)
(-0.00062121 0 -2.96561e-05)
(-0.000584296 0 -2.88579e-05)
(-0.000548413 0 -2.80805e-05)
(-0.000513523 0 -2.73025e-05)
(-0.000479615 0 -2.6537e-05)
(-0.000446631 0 -2.58049e-05)
(-0.000414524 0 -2.50657e-05)
(-0.000383303 0 -2.43195e-05)
(-0.000352957 0 -2.35895e-05)
(-0.000323444 0 -2.28773e-05)
(-0.00029475 0 -2.21616e-05)
(-0.000266883 0 -2.14631e-05)
(-0.000239827 0 -2.07863e-05)
(-0.000213575 0 -2.00983e-05)
(-0.000188158 0 -1.9397e-05)
(-0.000163581 0 -1.8742e-05)
(-0.000139789 0 -1.81415e-05)
(-0.000116757 0 -1.75322e-05)
(-9.45122e-05 0 -1.68892e-05)
(-7.30708e-05 0 -1.62574e-05)
(-5.23899e-05 0 -1.56803e-05)
(-3.24279e-05 0 -1.51249e-05)
(-1.31846e-05 0 -1.45511e-05)
(5.31466e-06 0 -1.39758e-05)
(2.30925e-05 0 -1.34529e-05)
(4.02198e-05 0 -1.29711e-05)
(5.67105e-05 0 -1.24675e-05)
(7.25332e-05 0 -1.19477e-05)
(8.77056e-05 0 -1.1464e-05)
(0.000102286 0 -1.10055e-05)
(0.000116283 0 -1.05319e-05)
(0.000129677 0 -1.00543e-05)
(0.000142488 0 -9.60906e-06)
(0.000154756 0 -9.18301e-06)
(0.000166481 0 -8.75111e-06)
(0.000177654 0 -8.3276e-06)
(0.000188302 0 -7.9388e-06)
(0.000198465 0 -7.56952e-06)
(0.000208156 0 -7.19454e-06)
(0.000217362 0 -6.81677e-06)
(0.000226095 0 -6.45294e-06)
(0.000234382 0 -6.10208e-06)
(0.000242231 0 -5.75426e-06)
(0.00024964 0 -5.41344e-06)
(0.000256615 0 -5.09113e-06)
(0.00026318 0 -4.78967e-06)
(0.000269356 0 -4.4999e-06)
(0.000275149 0 -4.20888e-06)
(0.000280556 0 -3.91272e-06)
(0.000285582 0 -3.61849e-06)
(0.000290242 0 -3.33267e-06)
(0.000294545 0 -3.05552e-06)
(0.0002985 0 -2.78628e-06)
(0.000302118 0 -2.52383e-06)
(0.000305412 0 -2.26539e-06)
(0.000308391 0 -2.01355e-06)
(0.000311066 0 -1.77288e-06)
(0.00031345 0 -1.54272e-06)
(0.000315557 0 -1.32214e-06)
(0.000317388 0 -1.11766e-06)
(0.000318959 0 -9.31845e-07)
(0.000320287 0 -7.58615e-07)
(0.000321373 0 -5.98047e-07)
(0.000322234 0 -4.53739e-07)
(0.000322889 0 -3.12233e-07)
(0.00032334 0 -1.52377e-07)
(0.000323572 0 2.36081e-08)
(0.000323585 0 1.95074e-07)
(0.000323401 0 3.59204e-07)
(0.000323026 0 5.29551e-07)
(0.000322452 0 7.01728e-07)
(0.000321686 0 8.53219e-07)
(0.000320757 0 9.79469e-07)
(0.000319678 0 1.10049e-06)
(0.000318442 0 1.22477e-06)
(0.000317045 0 1.33834e-06)
(0.000315506 0 1.4364e-06)
(0.000313834 0 1.53583e-06)
(0.000312023 0 1.6465e-06)
(0.000310068 0 1.75406e-06)
(0.00030799 0 1.84259e-06)
(0.000305813 0 1.91659e-06)
(0.000303545 0 1.98622e-06)
(0.000301188 0 2.0508e-06)
(0.000298749 0 2.10612e-06)
(0.000296235 0 2.15583e-06)
(0.000293648 0 2.20517e-06)
(0.000290989 0 2.25395e-06)
(0.000288262 0 2.30258e-06)
(0.00028547 0 2.35637e-06)
(0.000282614 0 2.41594e-06)
(0.000279693 0 2.47136e-06)
(0.000276723 0 2.51068e-06)
(0.000273723 0 2.53321e-06)
(0.000270704 0 2.54753e-06)
(0.000267665 0 2.5618e-06)
(0.000264602 0 2.57907e-06)
(0.000261507 0 2.59922e-06)
(0.000258373 0 2.61961e-06)
(0.000255198 0 2.63453e-06)
(0.000251988 0 2.64116e-06)
(0.000248757 0 2.64714e-06)
(0.000245508 0 2.66465e-06)
(0.000242234 0 2.69405e-06)
(0.000238935 0 2.71767e-06)
(0.000235625 0 2.71831e-06)
(0.00023233 0 2.70051e-06)
(0.000229059 0 2.68524e-06)
(0.000225801 0 2.68352e-06)
(0.000222542 0 2.68105e-06)
(0.000219291 0 2.65663e-06)
(0.000216074 0 2.60992e-06)
(0.000212906 0 2.56216e-06)
(0.000209776 0 2.53306e-06)
(0.000206662 0 2.52372e-06)
(0.00020355 0 2.52431e-06)
(0.000200438 0 2.52795e-06)
(0.000197324 0 2.53216e-06)
(0.000194207 0 2.53211e-06)
(0.000191089 0 2.52339e-06)
(0.000187979 0 2.50858e-06)
(0.000184883 0 2.49243e-06)
(0.000181804 0 2.47146e-06)
(0.000178753 0 2.43763e-06)
(0.000175747 0 2.39284e-06)
(0.000172791 0 2.3499e-06)
(0.000169878 0 2.31642e-06)
(0.000166998 0 2.29074e-06)
(0.000164146 0 2.26896e-06)
(0.000161317 0 2.25038e-06)
(0.000158506 0 2.23532e-06)
(0.000155708 0 2.22338e-06)
(0.000152919 0 2.21602e-06)
(0.000150138 0 2.21567e-06)
(0.00014736 0 2.21918e-06)
(0.000144588 0 2.2155e-06)
(0.000141837 0 2.19493e-06)
(0.000139124 0 2.15894e-06)
(0.000136464 0 2.11525e-06)
(0.000133861 0 2.0689e-06)
(0.000131318 0 2.01999e-06)
(0.000128836 0 1.96654e-06)
(0.000126421 0 1.90975e-06)
(0.000124072 0 1.85392e-06)
(0.000121784 0 1.80465e-06)
(0.000119546 0 1.76307e-06)
(0.000117349 0 1.72698e-06)
(0.000115183 0 1.70164e-06)
(0.000113036 0 1.68918e-06)
(0.000110896 0 1.68625e-06)
(0.000108759 0 1.68542e-06)
(0.000106628 0 1.68017e-06)
(0.00010451 0 1.66882e-06)
(0.000102412 0 1.65372e-06)
(0.000100337 0 1.63694e-06)
(9.82906e-05 0 1.61724e-06)
(9.62781e-05 0 1.59107e-06)
(9.43094e-05 0 1.5556e-06)
(9.23952e-05 0 1.50982e-06)
(9.05442e-05 0 1.45709e-06)
(8.87598e-05 0 1.40253e-06)
(8.70404e-05 0 1.35047e-06)
(8.53804e-05 0 1.30369e-06)
(8.37723e-05 0 1.26385e-06)
(8.22069e-05 0 1.2321e-06)
(8.06752e-05 0 1.20791e-06)
(7.91689e-05 0 1.19059e-06)
(7.76813e-05 0 1.17756e-06)
(7.62091e-05 0 1.16538e-06)
(7.47524e-05 0 1.15079e-06)
(7.33144e-05 0 1.13168e-06)
(7.19008e-05 0 1.10746e-06)
(7.05179e-05 0 1.07902e-06)
(6.91707e-05 0 1.04801e-06)
(6.78619e-05 0 1.01496e-06)
(6.65923e-05 0 9.78698e-07)
(6.53631e-05 0 9.37999e-07)
(6.41764e-05 0 8.95474e-07)
(6.30319e-05 0 8.58883e-07)
(6.19218e-05 0 8.38535e-07)
(6.08287e-05 0 8.38439e-07)
(5.97344e-05 0 8.49248e-07)
(5.86324e-05 0 8.56648e-07)
(5.75307e-05 0 8.52922e-07)
(5.64429e-05 0 8.4253e-07)
(5.53759e-05 0 8.31143e-07)
(5.43311e-05 0 8.14484e-07)
(5.33161e-05 0 7.81697e-07)
(5.23482e-05 0 7.30953e-07)
(5.14418e-05 0 6.76368e-07)
(5.05916e-05 0 6.3785e-07)
(4.97729e-05 0 6.19571e-07)
(4.89666e-05 0 6.08845e-07)
(4.81695e-05 0 5.9946e-07)
(4.73805e-05 0 5.98298e-07)
(4.65894e-05 0 6.12057e-07)
(4.57817e-05 0 6.33846e-07)
(4.49558e-05 0 6.48052e-07)
(4.41256e-05 0 6.4786e-07)
(4.33055e-05 0 6.38754e-07)
(4.25006e-05 0 6.25378e-07)
(4.17152e-05 0 6.04886e-07)
(4.09575e-05 0 5.76903e-07)
(4.02316e-05 0 5.49637e-07)
(3.95301e-05 0 5.31178e-07)
(3.88417e-05 0 5.22587e-07)
(3.81583e-05 0 5.23208e-07)
(3.7471e-05 0 5.34468e-07)
(3.67686e-05 0 5.53367e-07)
(3.6048e-05 0 5.69607e-07)
(3.53197e-05 0 5.74594e-07)
(3.45988e-05 0 5.69127e-07)
(3.38945e-05 0 5.56685e-07)
(3.32108e-05 0 5.3644e-07)
(3.25531e-05 0 5.07869e-07)
(3.19251e-05 0 4.78806e-07)
(3.13207e-05 0 4.61162e-07)
(3.07235e-05 0 4.60479e-07)
(3.01179e-05 0 4.71808e-07)
(2.94967e-05 0 4.86631e-07)
(2.88613e-05 0 4.99669e-07)
(2.82166e-05 0 5.08422e-07)
(2.75703e-05 0 5.08982e-07)
(2.69337e-05 0 4.96967e-07)
(2.63201e-05 0 4.72742e-07)
(2.57379e-05 0 4.43952e-07)
(2.51855e-05 0 4.20291e-07)
(2.46532e-05 0 4.06507e-07)
(2.41302e-05 0 4.00336e-07)
(2.36121e-05 0 3.97095e-07)
(2.30989e-05 0 3.95575e-07)
(2.25901e-05 0 3.96502e-07)
(2.20846e-05 0 3.95504e-07)
(2.15887e-05 0 3.83762e-07)
(2.11169e-05 0 3.57973e-07)
(2.06805e-05 0 3.24724e-07)
(2.0277e-05 0 2.97111e-07)
(1.98918e-05 0 2.84249e-07)
(1.95076e-05 0 2.88988e-07)
(1.91101e-05 0 3.07032e-07)
(1.86939e-05 0 3.27213e-07)
(1.82662e-05 0 3.38158e-07)
(1.7841e-05 0 3.35486e-07)
(1.7431e-05 0 3.21046e-07)
(1.70431e-05 0 2.99873e-07)
(1.66768e-05 0 2.80411e-07)
(1.63222e-05 0 2.71908e-07)
(1.5963e-05 0 2.78407e-07)
(1.55858e-05 0 2.96993e-07)
(1.51843e-05 0 3.22003e-07)
(1.47599e-05 0 3.44533e-07)
(1.43238e-05 0 3.52308e-07)
(1.38963e-05 0 3.37279e-07)
(1.34973e-05 0 3.06428e-07)
(1.31321e-05 0 2.77204e-07)
(1.27882e-05 0 2.62574e-07)
(1.24469e-05 0 2.61694e-07)
(1.21025e-05 0 2.65795e-07)
(1.17576e-05 0 2.73809e-07)
(1.14093e-05 0 2.79539e-07)
(1.10656e-05 0 2.68118e-07)
(1.07435e-05 0 2.43494e-07)
(1.04437e-05 0 2.25631e-07)
(1.01514e-05 0 2.24493e-07)
(9.85283e-06 0 2.35618e-07)
(9.5424e-06 0 2.48391e-07)
(9.22813e-06 0 2.49615e-07)
(8.92743e-06 0 2.37218e-07)
(8.64746e-06 0 2.21106e-07)
(8.38126e-06 0 2.06136e-07)
(8.12817e-06 0 1.94215e-07)
(7.88133e-06 0 1.93993e-07)
(7.6326e-06 0 1.95734e-07)
(7.3834e-06 0 1.87444e-07)
(7.15074e-06 0 1.75422e-07)
(6.92327e-06 0 1.8974e-07)
(6.66748e-06 0 2.11819e-07)
(6.40064e-06 0 2.17763e-07)
(6.12259e-06 0 2.27202e-07)
(5.85612e-06 0 2.08628e-07)
(5.63181e-06 0 1.99706e-07)
(5.4141e-06 0 1.7905e-07)
(5.24136e-06 0 1.43665e-07)
(5.03019e-06 0 1.20158e-07)
(4.94683e-06 0 1.03424e-07)
(4.7728e-06 0 9.28795e-08)
(4.69645e-06 0 4.53678e-08)
(4.64087e-06 0 2.97297e-08)
(4.58767e-06 0 3.67932e-08)
(4.5219e-06 0 7.06292e-08)
(4.40122e-06 0 9.16148e-08)
(4.31195e-06 0 7.41314e-08)
(4.21039e-06 0 7.97708e-08)
(4.14232e-06 0 1.54965e-08)
(4.13589e-06 0 5.02063e-08)
(4.0015e-06 0 1.18736e-07)
(3.85584e-06 0 1.14791e-07)
(3.71681e-06 0 1.08686e-07)
(3.62051e-06 0 7.18604e-08)
(3.55922e-06 0 9.45117e-08)
(3.43936e-06 0 7.8181e-08)
(3.39658e-06 0 2.59774e-08)
(3.38622e-06 0 -1.40873e-08)
(3.46541e-06 0 -1.00672e-07)
(3.49122e-06 0 -2.45494e-08)
(3.50893e-06 0 -5.81473e-08)
(3.56184e-06 0 2.06367e-08)
(3.49812e-06 0 2.83203e-08)
(3.46225e-06 0 1.1896e-07)
(3.3178e-06 0 5.77537e-08)
(3.40034e-06 0 -7.36644e-08)
(3.41087e-06 0 7.93438e-08)
(3.32095e-06 0 -6.06696e-08)
(3.4969e-06 0 -1.31584e-07)
(3.5023e-06 0 6.22504e-08)
(3.49228e-06 0 3.15676e-09)
(3.32739e-06 0 4.18756e-10)
(3.27414e-06 0 -1.49658e-08)
(3.23228e-06 0 2.23537e-07)
(2.96092e-06 0 2.9066e-07)
(3.07476e-06 0 3.69929e-08)
(3.36592e-06 0 9.29706e-08)
(2.90945e-06 0 -4.6849e-07)
(5.1302e-06 0 -7.42565e-07)
(4.44959e-06 0 4.65052e-08)
(4.50474e-06 0 -3.03933e-08)
(4.44991e-06 0 1.1035e-07)
(4.26409e-06 0 1.5399e-07)
(4.04122e-06 0 1.61667e-07)
(3.77461e-06 0 2.03951e-07)
(3.42345e-06 0 2.92979e-07)
(2.99744e-06 0 3.66489e-07)
(2.53168e-06 0 3.95771e-07)
(2.0392e-06 0 4.04221e-07)
(1.53736e-06 0 3.84509e-07)
(1.08491e-06 0 3.21582e-07)
(7.16121e-07 0 2.46301e-07)
(4.00097e-07 0 2.12566e-07)
(9.18091e-08 0 2.22733e-07)
(-2.27469e-07 0 2.36732e-07)
(-5.36585e-07 0 2.2242e-07)
(-8.01548e-07 0 1.81322e-07)
(-1.00943e-06 0 1.37073e-07)
(-1.1755e-06 0 1.10508e-07)
(-1.32855e-06 0 1.09338e-07)
(-1.49935e-06 0 1.3212e-07)
(-1.71151e-06 0 1.70549e-07)
(-1.97324e-06 0 2.13587e-07)
(-2.27784e-06 0 2.48842e-07)
(-2.61028e-06 0 2.70403e-07)
(-2.95153e-06 0 2.77507e-07)
(-3.28131e-06 0 2.68439e-07)
(-3.57566e-06 0 2.37863e-07)
(-3.80804e-06 0 1.80356e-07)
(-3.94689e-06 0 8.93865e-08)
(-3.95257e-06 0 -2.82862e-08)
(-3.8289e-06 0 -1.61462e-07)
(-3.56999e-06 0 -2.80502e-07)
(-3.18043e-06 0 -3.74068e-07)
(-2.7106e-06 0 -4.31539e-07)
(-2.19108e-06 0 -4.52969e-07)
(-1.65351e-06 0 -4.47623e-07)
(-1.12388e-06 0 -4.25179e-07)
(-6.2229e-07 0 -3.91031e-07)
(-1.66332e-07 0 -3.41205e-07)
(2.27303e-07 0 -2.73636e-07)
(5.22576e-07 0 -1.8683e-07)
(6.96522e-07 0 -9.35488e-08)
(7.66471e-07 0 -1.43318e-08)
(7.74623e-07 0 3.3951e-08)
(7.67985e-07 0 3.39965e-08)
(7.84375e-07 0 -1.21603e-08)
(8.7064e-07 0 -9.3614e-08)
(1.06853e-06 0 -1.98212e-07)
(1.39033e-06 0 -3.05117e-07)
(1.80939e-06 0 -3.70961e-07)
(2.24235e-06 0 -3.42347e-07)
(2.58361e-06 0 -2.01193e-07)
(2.73023e-06 0 -2.72293e-08)
(2.73172e-06 0 7.1487e-08)
(2.75659e-06 0 -3.06067e-08)
(2.97472e-06 0 -2.72304e-07)
(3.37221e-06 0 -4.01048e-07)
(3.68864e-06 0 -2.36823e-07)
(3.64919e-06 0 2.03862e-07)
(3.18567e-06 0 5.38166e-07)
(2.63492e-06 0 4.94636e-07)
(2.4024e-06 0 1.09325e-07)
(2.4625e-06 0 -9.62275e-08)
(2.39028e-06 0 1.67403e-07)
(1.91525e-06 0 5.6007e-07)
(1.29848e-06 0 4.87667e-07)
(1.16166e-06 0 -8.7935e-08)
(1.53295e-06 0 -3.71385e-07)
(1.7295e-06 0 -9.22688e-08)
(1.62346e-06 0 1.03954e-07)
(1.81702e-06 0 -4.01339e-07)
(2.52217e-06 0 -8.29573e-07)
(3.01083e-06 0 -2.76032e-07)
(2.86475e-06 0 2.61931e-07)
(2.65752e-06 0 8.59727e-08)
(2.3589e-06 0 4.81495e-07)
(1.84295e-06 0 5.71508e-07)
(8.09904e-07 0 7.0508e-07)
(-0.024492 0 -8.25242e-06)
(-0.0379008 0 0.000311207)
(-0.0344744 0 0.000344744)
(-0.0347966 0 0.000246292)
(-0.0348862 0 0.000239424)
(-0.0350002 0 0.000232481)
(-0.0350679 0 0.000181215)
(-0.0351179 0 0.000130166)
(-0.0351499 0 8.05835e-05)
(-0.0351646 0 2.6382e-05)
(-0.0351628 0 -1.87541e-05)
(-0.0351485 0 -5.20735e-05)
(-0.0351225 0 -9.45976e-05)
(-0.0350842 0 -0.000100934)
(-0.0350331 0 -0.000129876)
(-0.03497 0 -0.000157546)
(-0.0348931 0 -0.000184651)
(-0.0348011 0 -0.000222874)
(-0.0346941 0 -0.000259789)
(-0.0345718 0 -0.000292123)
(-0.0344342 0 -0.000325473)
(-0.0342821 0 -0.00035906)
(-0.0341163 0 -0.000391417)
(-0.0339368 0 -0.000418722)
(-0.0337444 0 -0.000442013)
(-0.0335397 0 -0.000466158)
(-0.0333225 0 -0.000498537)
(-0.0330933 0 -0.000527529)
(-0.0328545 0 -0.000548557)
(-0.0326065 0 -0.00056976)
(-0.0323476 0 -0.000594293)
(-0.032083 0 -0.000609686)
(-0.0318124 0 -0.000638647)
(-0.0315253 0 -0.000677422)
(-0.0312232 0 -0.000700422)
(-0.030913 0 -0.000719925)
(-0.0305942 0 -0.000744597)
(-0.0302705 0 -0.000764076)
(-0.0299398 0 -0.000790851)
(-0.0295943 0 -0.000817478)
(-0.0292372 0 -0.000830829)
(-0.0288734 0 -0.000843764)
(-0.0285034 0 -0.000870678)
(-0.0281263 0 -0.000891592)
(-0.0277417 0 -0.000897894)
(-0.0273518 0 -0.000911806)
(-0.0269581 0 -0.000933562)
(-0.0265613 0 -0.000954211)
(-0.0261616 0 -0.000971904)
(-0.0257588 0 -0.00098717)
(-0.0253519 0 -0.00100128)
(-0.0249395 0 -0.00102424)
(-0.0245209 0 -0.00104485)
(-0.0240958 0 -0.00106042)
(-0.023664 0 -0.00107227)
(-0.0232262 0 -0.00107851)
(-0.0227838 0 -0.00108226)
(-0.022338 0 -0.00108559)
(-0.0218906 0 -0.00108493)
(-0.0214431 0 -0.00108042)
(-0.0209959 0 -0.00107998)
(-0.0205489 0 -0.00108056)
(-0.0201014 0 -0.00108231)
(-0.0196522 0 -0.00108666)
(-0.0191999 0 -0.00109546)
(-0.0187427 0 -0.001108)
(-0.0182791 0 -0.00112491)
(-0.0178077 0 -0.00114678)
(-0.0173271 0 -0.00117376)
(-0.0168355 0 -0.00120816)
(-0.0163307 0 -0.00125517)
(-0.0158102 0 -0.00132376)
(-0.0152724 0 -0.00142657)
(-0.0147183 0 -0.00158494)
(-0.0141575 0 -0.00182597)
(-0.0136212 0 -0.00220075)
(-0.0132063 0 -0.00283039)
(-0.0131276 0 -0.00384005)
(-0.012884 0 -0.00420719)
(-0.0118358 0 -0.00237182)
(-0.0113938 0 -0.00190598)
(-0.00623597 0 -0.000641843)
(-0.00641856 0 -0.000354779)
(-0.00537916 0 4.91285e-05)
(-0.00529109 0 0.000278459)
(-0.00519333 0 -0.000322312)
(-0.00499563 0 -0.000354009)
(-0.00490881 0 -0.000335063)
(-0.00488656 0 -0.000250855)
(-0.00483105 0 -0.000247955)
(-0.0046982 0 -0.000214998)
(-0.0046051 0 -0.000203952)
(-0.0045205 0 -0.000222244)
(-0.00441657 0 -0.000229853)
(-0.00432299 0 -0.000229205)
(-0.00422561 0 -0.000241383)
(-0.00412561 0 -0.000245902)
(-0.00402672 0 -0.000253807)
(-0.00393445 0 -0.000265632)
(-0.00383971 0 -0.000264315)
(-0.00373677 0 -0.000250554)
(-0.00364674 0 -0.000241592)
(-0.00348445 0 -0.000227419)
(-0.0033986 0 -0.000219503)
(-0.0032985 0 -0.000209767)
(-0.00320956 0 -0.000206064)
(-0.0031229 0 -0.000208132)
(-0.00303391 0 -0.000207173)
(-0.00294755 0 -0.000203432)
(-0.00286217 0 -0.000200151)
(-0.00277879 0 -0.0001976)
(-0.0026965 0 -0.000194834)
(-0.00261468 0 -0.00019127)
(-0.00253486 0 -0.000187939)
(-0.00245523 0 -0.000182561)
(-0.00237711 0 -0.000180485)
(-0.0023043 0 -0.000172116)
(-0.00222624 0 -0.000167418)
(-0.00215953 0 -0.000168521)
(-0.00208827 0 -0.000162859)
(-0.00200739 0 -0.000159526)
(-0.00194085 0 -0.000157746)
(-0.00188001 0 -0.000161831)
(-0.00181379 0 -0.000160422)
(-0.00175347 0 -0.000152211)
(-0.00168944 0 -0.000150296)
(-0.00162386 0 -0.00014639)
(-0.0015621 0 -0.000144146)
(-0.00150221 0 -0.000142488)
(-0.00144245 0 -0.000139763)
(-0.00138426 0 -0.000136145)
(-0.00132668 0 -0.000133033)
(-0.0012699 0 -0.000129548)
(-0.00121445 0 -0.000126184)
(-0.00116023 0 -0.000123004)
(-0.00110723 0 -0.000119885)
(-0.00105556 0 -0.000116678)
(-0.00100529 0 -0.000113372)
(-0.000956456 0 -0.000110263)
(-0.000909031 0 -0.000107319)
(-0.000863058 0 -0.000104497)
(-0.000818499 0 -0.000101668)
(-0.000775347 0 -9.88567e-05)
(-0.000733561 0 -9.61789e-05)
(-0.000693063 0 -9.3611e-05)
(-0.000653781 0 -9.10109e-05)
(-0.00061569 0 -8.84412e-05)
(-0.000578748 0 -8.60164e-05)
(-0.000542868 0 -8.3674e-05)
(-0.000508005 0 -8.1314e-05)
(-0.000474149 0 -7.89594e-05)
(-0.000441244 0 -7.66982e-05)
(-0.000409233 0 -7.44447e-05)
(-0.000378104 0 -7.21724e-05)
(-0.000347852 0 -6.99469e-05)
(-0.000318436 0 -6.78005e-05)
(-0.000289822 0 -6.5671e-05)
(-0.000262019 0 -6.35654e-05)
(-0.000235045 0 -6.1513e-05)
(-0.000208895 0 -5.94771e-05)
(-0.000183562 0 -5.74309e-05)
(-0.000159049 0 -5.54554e-05)
(-0.000135356 0 -5.35784e-05)
(-0.000112472 0 -5.17311e-05)
(-9.03568e-05 0 -4.98811e-05)
(-6.89868e-05 0 -4.80707e-05)
(-4.83594e-05 0 -4.63608e-05)
(-2.84672e-05 0 -4.47071e-05)
(-9.30095e-06 0 -4.30382e-05)
(9.14162e-06 0 -4.13646e-05)
(2.68687e-05 0 -3.97858e-05)
(4.39092e-05 0 -3.82996e-05)
(6.02871e-05 0 -3.67964e-05)
(7.60149e-05 0 -3.5279e-05)
(9.11156e-05 0 -3.38398e-05)
(0.000105617 0 -3.24706e-05)
(0.000119536 0 -3.10942e-05)
(0.000132873 0 -2.97206e-05)
(0.000145638 0 -2.84158e-05)
(0.000157855 0 -2.71615e-05)
(0.000169539 0 -2.59062e-05)
(0.00018069 0 -2.46701e-05)
(0.000191322 0 -2.35064e-05)
(0.000201458 0 -2.23932e-05)
(0.000211115 0 -2.12749e-05)
(0.000220293 0 -2.01551e-05)
(0.000228996 0 -1.90781e-05)
(0.000237243 0 -1.80454e-05)
(0.000245046 0 -1.70222e-05)
(0.000252401 0 -1.60032e-05)
(0.000259303 0 -1.50194e-05)
(0.000265768 0 -1.40895e-05)
(0.000271824 0 -1.31957e-05)
(0.000277488 0 -1.23089e-05)
(0.000282771 0 -1.14274e-05)
(0.00028769 0 -1.05722e-05)
(0.000292262 0 -9.74331e-06)
(0.000296486 0 -8.92393e-06)
(0.000300354 0 -8.11718e-06)
(0.000303876 0 -7.33617e-06)
(0.00030707 0 -6.57993e-06)
(0.000309952 0 -5.84716e-06)
(0.000312534 0 -5.14681e-06)
(0.000314833 0 -4.48136e-06)
(0.000316865 0 -3.84935e-06)
(0.000318641 0 -3.2595e-06)
(0.00032017 0 -2.71282e-06)
(0.000321455 0 -2.19072e-06)
(0.000322493 0 -1.68761e-06)
(0.000323286 0 -1.21459e-06)
(0.000323844 0 -7.53853e-07)
(0.000324179 0 -2.64485e-07)
(0.000324295 0 2.5395e-07)
(0.000324202 0 7.5912e-07)
(0.000323918 0 1.23762e-06)
(0.000323457 0 1.71483e-06)
(0.000322823 0 2.18792e-06)
(0.000322019 0 2.61708e-06)
(0.000321054 0 2.99289e-06)
(0.000319931 0 3.35489e-06)
(0.00031865 0 3.72336e-06)
(0.000317207 0 4.07215e-06)
(0.000315615 0 4.38685e-06)
(0.00031389 0 4.69359e-06)
(0.000312039 0 5.00931e-06)
(0.00031007 0 5.30673e-06)
(0.000307994 0 5.55714e-06)
(0.000305818 0 5.77335e-06)
(0.000303547 0 5.98118e-06)
(0.000301176 0 6.18088e-06)
(0.00029871 0 6.36132e-06)
(0.000296153 0 6.52645e-06)
(0.000293514 0 6.68474e-06)
(0.000290803 0 6.83289e-06)
(0.000288036 0 6.9688e-06)
(0.000285228 0 7.10279e-06)
(0.000282387 0 7.24131e-06)
(0.000279513 0 7.37076e-06)
(0.000276607 0 7.47331e-06)
(0.000273664 0 7.54934e-06)
(0.000270681 0 7.61342e-06)
(0.000267653 0 7.6752e-06)
(0.000264582 0 7.73681e-06)
(0.000261468 0 7.8008e-06)
(0.00025831 0 7.86857e-06)
(0.000255104 0 7.9302e-06)
(0.000251853 0 7.97141e-06)
(0.000248574 0 7.99478e-06)
(0.00024529 0 8.02101e-06)
(0.000242013 0 8.06087e-06)
(0.000238742 0 8.09385e-06)
(0.000235475 0 8.08944e-06)
(0.000232214 0 8.04736e-06)
(0.000228968 0 8.00193e-06)
(0.000225738 0 7.97892e-06)
(0.000222514 0 7.96e-06)
(0.000219287 0 7.90619e-06)
(0.000216057 0 7.81109e-06)
(0.000212834 0 7.7125e-06)
(0.000209624 0 7.64825e-06)
(0.000206427 0 7.61836e-06)
(0.000203244 0 7.59778e-06)
(0.000200083 0 7.57303e-06)
(0.000196946 0 7.54763e-06)
(0.00019383 0 7.52055e-06)
(0.000190733 0 7.48147e-06)
(0.000187655 0 7.42848e-06)
(0.000184604 0 7.36897e-06)
(0.000181577 0 7.30038e-06)
(0.000178576 0 7.21141e-06)
(0.000175599 0 7.10643e-06)
(0.000172646 0 7.00824e-06)
(0.000169716 0 6.92913e-06)
(0.000166807 0 6.86245e-06)
(0.000163918 0 6.80013e-06)
(0.00016105 0 6.74462e-06)
(0.000158201 0 6.69914e-06)
(0.000155368 0 6.65969e-06)
(0.000152559 0 6.62316e-06)
(0.00014978 0 6.59239e-06)
(0.000147035 0 6.56545e-06)
(0.000144323 0 6.52645e-06)
(0.000141646 0 6.45766e-06)
(0.000139006 0 6.35812e-06)
(0.00013641 0 6.24054e-06)
(0.000133857 0 6.11573e-06)
(0.000131348 0 5.98402e-06)
(0.000128882 0 5.84144e-06)
(0.000126462 0 5.69005e-06)
(0.000124087 0 5.53957e-06)
(0.000121754 0 5.40219e-06)
(0.00011946 0 5.28344e-06)
(0.0001172 0 5.1829e-06)
(0.00011497 0 5.10648e-06)
(0.000112771 0 5.05519e-06)
(0.000110601 0 5.02194e-06)
(0.000108458 0 4.99379e-06)
(0.000106343 0 4.95978e-06)
(0.000104256 0 4.91647e-06)
(0.000102201 0 4.86618e-06)
(0.00010018 0 4.8103e-06)
(9.81971e-05 0 4.74488e-06)
(9.62544e-05 0 4.66312e-06)
(9.43551e-05 0 4.56034e-06)
(9.25013e-05 0 4.43731e-06)
(9.06941e-05 0 4.30144e-06)
(8.89328e-05 0 4.16268e-06)
(8.72157e-05 0 4.02976e-06)
(8.55396e-05 0 3.90836e-06)
(8.3901e-05 0 3.80171e-06)
(8.22966e-05 0 3.71119e-06)
(8.0724e-05 0 3.63555e-06)
(7.91813e-05 0 3.57223e-06)
(7.76677e-05 0 3.5165e-06)
(7.61828e-05 0 3.46233e-06)
(7.47262e-05 0 3.40366e-06)
(7.32985e-05 0 3.33505e-06)
(7.19014e-05 0 3.25323e-06)
(7.05379e-05 0 3.15897e-06)
(6.92111e-05 0 3.05755e-06)
(6.79216e-05 0 2.95627e-06)
(6.66656e-05 0 2.85923e-06)
(6.54358e-05 0 2.7659e-06)
(6.42254e-05 0 2.67486e-06)
(6.30329e-05 0 2.59201e-06)
(6.18621e-05 0 2.53272e-06)
(6.07163e-05 0 2.5101e-06)
(5.95928e-05 0 2.5163e-06)
(5.84848e-05 0 2.52466e-06)
(5.73905e-05 0 2.50947e-06)
(5.63169e-05 0 2.46772e-06)
(5.52741e-05 0 2.41305e-06)
(5.42637e-05 0 2.35025e-06)
(5.32798e-05 0 2.26516e-06)
(5.23198e-05 0 2.14775e-06)
(5.13889e-05 0 2.01883e-06)
(5.04901e-05 0 1.92041e-06)
(4.96161e-05 0 1.87107e-06)
(4.87526e-05 0 1.84918e-06)
(4.78933e-05 0 1.83156e-06)
(4.70435e-05 0 1.82201e-06)
(4.62081e-05 0 1.83612e-06)
(4.53845e-05 0 1.86791e-06)
(4.45676e-05 0 1.88838e-06)
(4.3759e-05 0 1.87914e-06)
(4.29639e-05 0 1.84858e-06)
(4.21832e-05 0 1.80879e-06)
(4.14148e-05 0 1.75719e-06)
(4.06592e-05 0 1.69382e-06)
(3.99165e-05 0 1.63562e-06)
(3.91832e-05 0 1.59858e-06)
(3.84557e-05 0 1.58217e-06)
(3.77343e-05 0 1.58288e-06)
(3.70191e-05 0 1.60441e-06)
(3.63075e-05 0 1.6414e-06)
(3.55989e-05 0 1.66958e-06)
(3.48999e-05 0 1.66697e-06)
(3.42196e-05 0 1.63547e-06)
(3.35606e-05 0 1.59e-06)
(3.29176e-05 0 1.53748e-06)
(3.22839e-05 0 1.47841e-06)
(3.16566e-05 0 1.42326e-06)
(3.10339e-05 0 1.39114e-06)
(3.04127e-05 0 1.39199e-06)
(2.97904e-05 0 1.41649e-06)
(2.91675e-05 0 1.44636e-06)
(2.85483e-05 0 1.46815e-06)
(2.79371e-05 0 1.47499e-06)
(2.73367e-05 0 1.46093e-06)
(2.67489e-05 0 1.42158e-06)
(2.61749e-05 0 1.36128e-06)
(2.56161e-05 0 1.29569e-06)
(2.50717e-05 0 1.24326e-06)
(2.4538e-05 0 1.21292e-06)
(2.40104e-05 0 1.1988e-06)
(2.3488e-05 0 1.18829e-06)
(2.29766e-05 0 1.176e-06)
(2.24819e-05 0 1.16407e-06)
(2.20038e-05 0 1.14663e-06)
(2.15391e-05 0 1.10744e-06)
(2.10876e-05 0 1.04235e-06)
(2.06486e-05 0 9.71249e-07)
(2.0216e-05 0 9.22385e-07)
(1.97826e-05 0 9.08543e-07)
(1.93467e-05 0 9.25167e-07)
(1.89121e-05 0 9.57684e-07)
(1.84841e-05 0 9.84268e-07)
(1.80686e-05 0 9.85796e-07)
(1.76702e-05 0 9.58897e-07)
(1.72878e-05 0 9.13935e-07)
(1.69146e-05 0 8.66072e-07)
(1.65417e-05 0 8.33405e-07)
(1.61607e-05 0 8.31401e-07)
(1.5769e-05 0 8.60469e-07)
(1.53696e-05 0 9.07722e-07)
(1.49685e-05 0 9.55665e-07)
(1.45728e-05 0 9.85896e-07)
(1.41881e-05 0 9.8216e-07)
(1.38144e-05 0 9.39345e-07)
(1.34478e-05 0 8.73876e-07)
(1.30844e-05 0 8.1911e-07)
(1.27197e-05 0 7.98855e-07)
(1.23528e-05 0 8.03504e-07)
(1.19933e-05 0 8.05394e-07)
(1.16532e-05 0 8.02631e-07)
(1.13295e-05 0 7.96091e-07)
(1.10122e-05 0 7.67162e-07)
(1.06939e-05 0 7.24374e-07)
(1.03704e-05 0 6.97939e-07)
(1.00469e-05 0 6.98457e-07)
(9.73015e-06 0 7.15735e-07)
(9.4236e-06 0 7.27325e-07)
(9.13013e-06 0 7.09669e-07)
(8.85347e-06 0 6.6653e-07)
(8.5895e-06 0 6.28278e-07)
(8.32716e-06 0 6.03569e-07)
(8.06299e-06 0 5.83066e-07)
(7.79945e-06 0 5.78369e-07)
(7.53924e-06 0 5.77677e-07)
(7.28024e-06 0 5.63989e-07)
(7.03166e-06 0 5.35979e-07)
(6.79168e-06 0 5.63095e-07)
(6.55651e-06 0 6.02954e-07)
(6.33005e-06 0 6.34051e-07)
(6.07985e-06 0 6.29798e-07)
(5.86374e-06 0 5.41734e-07)
(5.63558e-06 0 4.61691e-07)
(5.57146e-06 0 4.27785e-07)
(5.38448e-06 0 4.03392e-07)
(5.22484e-06 0 3.85459e-07)
(5.04017e-06 0 3.27561e-07)
(4.88122e-06 0 2.73968e-07)
(4.76469e-06 0 1.6462e-07)
(4.65253e-06 0 1.4514e-07)
(4.55222e-06 0 1.45279e-07)
(4.45734e-06 0 2.18218e-07)
(4.34963e-06 0 2.45916e-07)
(4.25803e-06 0 2.02965e-07)
(4.15535e-06 0 2.04846e-07)
(4.07411e-06 0 8.45086e-08)
(4.0151e-06 0 1.65407e-07)
(3.89465e-06 0 3.42033e-07)
(3.78448e-06 0 3.09785e-07)
(3.69361e-06 0 2.81343e-07)
(3.61692e-06 0 1.43336e-07)
(3.61942e-06 0 1.91287e-07)
(3.54889e-06 0 1.74097e-07)
(3.52254e-06 0 2.91347e-08)
(3.50435e-06 0 -3.70468e-08)
(3.49745e-06 0 -1.4763e-07)
(3.41076e-06 0 4.06221e-08)
(3.36959e-06 0 -1.3905e-07)
(3.44366e-06 0 4.01933e-08)
(3.39627e-06 0 8.61459e-08)
(3.35978e-06 0 1.5256e-07)
(3.43455e-06 0 6.03209e-08)
(3.42537e-06 0 -1.36612e-07)
(3.44796e-06 0 9.92242e-08)
(3.50243e-06 0 -1.04113e-07)
(3.32988e-06 0 -1.893e-07)
(3.27126e-06 0 -3.14461e-09)
(3.36868e-06 0 1.55769e-07)
(3.08584e-06 0 5.68847e-07)
(3.05302e-06 0 2.46952e-08)
(3.60812e-06 0 2.86554e-07)
(3.19649e-06 0 -2.03268e-07)
(5.62305e-06 0 -9.29467e-07)
(5.36133e-06 0 -3.11946e-07)
(5.59787e-06 0 -1.70561e-06)
(5.29966e-06 0 -4.24693e-07)
(4.98314e-06 0 8.01625e-08)
(4.92133e-06 0 -2.82499e-08)
(4.7741e-06 0 3.87034e-07)
(4.54562e-06 0 5.14329e-07)
(4.25838e-06 0 5.91145e-07)
(3.88432e-06 0 7.77298e-07)
(3.47211e-06 0 9.15642e-07)
(3.11199e-06 0 9.60071e-07)
(2.79513e-06 0 1.0103e-06)
(2.46209e-06 0 1.07325e-06)
(2.10885e-06 0 1.04689e-06)
(1.76155e-06 0 9.12952e-07)
(1.41536e-06 0 7.80447e-07)
(1.04861e-06 0 7.39349e-07)
(6.69421e-07 0 7.58959e-07)