/*--------------------------------*- C++ -*----------------------------------*\
| =========                 |                                                 |
| \\      /  F ield         | OpenFOAM: The Open Source CFD Toolbox           |
|  \\    /   O peration     | Version:  v2006                                 |
|   \\  /    A nd           | Website:  www.openfoam.com                      |
|    \\/     M anipulation  |                                                 |
\*---------------------------------------------------------------------------*/
FoamFile
{
    version     2.0;
    format      ascii;
    class       surfaceScalarField;
    location    "8.3";
    object      alphaPhi0.water;
}
// * * * * * * * * * * * * * * * * * * * * * * * * * * * * * * * * * * * * * //

dimensions      [0 3 -1 0 0 0 0];
oriented        oriented;


internalField   nonuniform List<scalar> 
65390
(
-3.01209e-05
1.30313e-05
-3.38416e-05
3.72069e-06
-3.53009e-05
1.45919e-06
-3.1686e-05
-3.61498e-06
-2.49787e-05
-6.70753e-06
-1.70298e-05
-7.94914e-06
-9.77918e-06
-7.25076e-06
-4.01817e-06
-5.76086e-06
4.91207e-07
-4.50862e-06
4.53103e-06
-4.03825e-06
8.84959e-06
-4.31742e-06
1.33354e-05
-4.48538e-06
1.72372e-05
-3.90211e-06
1.99173e-05
-2.68083e-06
2.0405e-05
-4.88463e-07
1.72647e-05
3.13966e-06
1.02177e-05
7.04627e-06
1.67924e-06
8.53789e-06
-5.95598e-06
7.63463e-06
-1.09612e-05
5.00473e-06
-1.33486e-05
2.38694e-06
-1.41178e-05
7.68773e-07
-1.34871e-05
-6.31036e-07
-1.18854e-05
-1.60192e-06
-9.94265e-06
-1.9429e-06
-8.08429e-06
-1.85849e-06
-6.77771e-06
-1.30665e-06
-6.36059e-06
-4.17163e-07
-7.21778e-06
8.57186e-07
-9.37076e-06
2.15301e-06
-1.28829e-05
3.5122e-06
-1.76397e-05
4.75704e-06
-2.30034e-05
5.36384e-06
-2.87108e-05
5.7076e-06
-3.43624e-05
5.65165e-06
-3.87918e-05
4.4295e-06
-4.18403e-05
3.04918e-06
-4.47593e-05
2.92494e-06
-4.7895e-05
3.14496e-06
-5.05422e-05
2.63988e-06
-5.1825e-05
1.27157e-06
-5.22621e-05
4.37143e-07
-5.25536e-05
2.91393e-07
-5.3032e-05
4.8223e-07
-5.41278e-05
1.1132e-06
-5.55658e-05
1.4624e-06
-5.68965e-05
1.28597e-06
-5.75051e-05
6.06881e-07
-5.74632e-05
-4.16177e-08
-5.72926e-05
-1.70306e-07
-5.73804e-05
9.57785e-08
-5.80413e-05
6.76182e-07
-5.89192e-05
8.77907e-07
-5.97101e-05
7.69154e-07
-6.00682e-05
3.56231e-07
-5.9897e-05
-1.71091e-07
-5.93543e-05
-5.42583e-07
-5.8591e-05
-7.6325e-07
-5.76177e-05
-9.7317e-07
-5.64407e-05
-1.17676e-06
-5.52765e-05
-1.16403e-06
-5.45349e-05
-7.41403e-07
-5.43663e-05
-1.65729e-07
-5.45271e-05
1.70369e-07
-5.47745e-05
2.55497e-07
-5.49391e-05
1.58532e-07
-5.49266e-05
-2.58856e-08
-5.49301e-05
3.41302e-09
-5.49083e-05
-2.17729e-08
-5.45424e-05
-3.66342e-07
-5.35769e-05
-9.65986e-07
-5.19747e-05
-1.60228e-06
-4.96792e-05
-2.29549e-06
-4.67525e-05
-2.92667e-06
-4.3067e-05
-3.6853e-06
-3.84799e-05
-4.58596e-06
-3.27844e-05
-5.69182e-06
-2.5773e-05
-7.00242e-06
-2.01901e-05
-5.57738e-06
-1.81134e-05
-2.07665e-06
-1.69367e-05
-1.17678e-06
-1.72854e-05
3.48767e-07
-1.77594e-05
4.741e-07
-1.84878e-05
7.28512e-07
-1.94506e-05
9.62952e-07
-2.01392e-05
6.88037e-07
-2.07831e-05
6.35049e-07
-2.14381e-05
6.54205e-07
-2.20259e-05
5.878e-07
-2.25668e-05
5.40989e-07
-2.2868e-05
3.01206e-07
-2.30055e-05
1.37564e-07
-2.30294e-05
2.39522e-08
-2.30148e-05
-1.43498e-08
-2.29511e-05
-6.10224e-08
-2.28809e-05
-6.61953e-08
-2.27044e-05
-1.76568e-07
-2.22971e-05
-4.11197e-07
-2.12688e-05
-1.03046e-06
-2.05613e-05
-7.07459e-07
-2.0461e-05
-1.0027e-07
-2.05423e-05
8.16924e-08
-2.06703e-05
1.30836e-07
-2.06583e-05
-9.68138e-09
-2.10066e-05
3.48282e-07
-2.12764e-05
2.69855e-07
-2.13399e-05
6.34229e-08
-2.13756e-05
3.57469e-08
-2.13229e-05
-5.82259e-08
-2.12215e-05
-1.0182e-07
-2.10627e-05
-1.58819e-07
-2.08841e-05
-1.77975e-07
-2.06148e-05
-2.63353e-07
-2.02575e-05
-3.57371e-07
-1.96214e-05
-6.39962e-07
-1.86919e-05
-9.31318e-07
-1.72523e-05
-1.43948e-06
-1.61652e-05
-1.08646e-06
-1.58376e-05
-3.26303e-07
-1.57899e-05
-4.78243e-08
-1.59224e-05
1.31952e-07
-1.59417e-05
1.74154e-08
-1.61371e-05
1.9557e-07
-1.62765e-05
1.39934e-07
-1.62691e-05
-4.13058e-09
-1.62946e-05
2.54778e-08
-1.6314e-05
1.62015e-08
-1.6309e-05
-5.84595e-09
-1.63132e-05
4.07645e-09
-1.62956e-05
-1.75407e-08
-1.62531e-05
-4.25846e-08
-1.62117e-05
-4.01165e-08
-1.61663e-05
-4.4625e-08
-1.61133e-05
-5.3363e-08
-1.60437e-05
-7.13607e-08
-1.59575e-05
-8.62359e-08
-1.58681e-05
-8.94547e-08
-1.57746e-05
-9.34677e-08
-1.56797e-05
-9.48384e-08
-1.5576e-05
-1.03813e-07
-1.54613e-05
-1.14726e-07
-1.53372e-05
-1.23961e-07
-1.52077e-05
-1.26493e-07
-1.50824e-05
-1.25308e-07
-1.49512e-05
-1.31187e-07
-1.48118e-05
-1.42216e-07
-1.4655e-05
-1.56815e-07
-1.44842e-05
-1.70767e-07
-1.43094e-05
-1.74857e-07
-1.41365e-05
-1.71056e-07
-1.39657e-05
-1.69292e-07
-1.37862e-05
-1.83288e-07
-1.35791e-05
-2.07193e-07
-1.33628e-05
-2.16274e-07
-1.31461e-05
-2.16364e-07
-1.2926e-05
-2.18796e-07
-1.27012e-05
-2.24788e-07
-1.24661e-05
-2.35112e-07
-1.22232e-05
-2.44891e-07
-1.19687e-05
-2.54733e-07
-1.1707e-05
-2.61715e-07
-1.14368e-05
-2.70275e-07
-1.11618e-05
-2.74683e-07
-1.08837e-05
-2.77979e-07
-1.05917e-05
-2.92289e-07
-1.02855e-05
-3.06334e-07
-9.97614e-06
-3.09137e-07
-9.67092e-06
-3.05132e-07
-9.35648e-06
-3.14889e-07
-9.02104e-06
-3.35442e-07
-8.6723e-06
-3.48738e-07
-8.3242e-06
-3.4791e-07
-7.98285e-06
-3.40982e-07
-7.6331e-06
-3.49992e-07
-7.25843e-06
-3.7497e-07
-6.86544e-06
-3.92987e-07
-6.46047e-06
-4.0487e-07
-6.0523e-06
-4.07763e-07
-5.65528e-06
-3.9657e-07
-5.26168e-06
-3.93571e-07
-4.85456e-06
-4.07722e-07
-4.43348e-06
-4.21062e-07
-3.99127e-06
-4.42225e-07
-3.53554e-06
-4.55525e-07
-3.07962e-06
-4.55791e-07
-2.62894e-06
-4.50697e-07
-2.19335e-06
-4.35624e-07
-1.75914e-06
-4.34311e-07
-1.31457e-06
-4.4455e-07
-8.65011e-07
-4.49548e-07
-4.24648e-07
-4.40275e-07
-5.60129e-09
-4.1903e-07
3.97031e-07
-4.02566e-07
7.90106e-07
-3.92998e-07
1.18155e-06
-3.91364e-07
1.57296e-06
-3.91406e-07
1.96019e-06
-3.87229e-07
2.33563e-06
-3.75454e-07
2.68994e-06
-3.54656e-07
3.02953e-06
-3.39552e-07
3.36361e-06
-3.34091e-07
3.70063e-06
-3.36675e-07
4.03666e-06
-3.35922e-07
4.36418e-06
-3.27544e-07
4.68e-06
-3.15807e-07
4.98408e-06
-3.04628e-07
5.28379e-06
-2.99352e-07
5.58253e-06
-2.98614e-07
5.87585e-06
-2.93324e-07
6.15536e-06
-2.79687e-07
6.42137e-06
-2.66077e-07
6.68763e-06
-2.66056e-07
6.95453e-06
-2.66799e-07
7.21684e-06
-2.62288e-07
7.47249e-06
-2.55694e-07
7.71592e-06
-2.44104e-07
7.9453e-06
-2.29639e-07
8.16782e-06
-2.22517e-07
8.38985e-06
-2.21186e-07
8.61016e-06
-2.20181e-07
8.82541e-06
-2.15262e-07
9.03381e-06
-2.0839e-07
9.2305e-06
-1.97416e-07
9.41519e-06
-1.85129e-07
9.59384e-06
-1.77912e-07
9.76771e-06
-1.73497e-07
9.93826e-06
-1.70485e-07
1.01039e-05
-1.65611e-07
1.02626e-05
-1.58741e-07
1.04101e-05
-1.48241e-07
1.05464e-05
-1.36663e-07
1.06761e-05
-1.29682e-07
1.08024e-05
-1.25349e-07
1.09236e-05
-1.21206e-07
1.10387e-05
-1.155e-07
1.11462e-05
-1.07559e-07
1.12455e-05
-9.93435e-08
1.13375e-05
-9.16777e-08
1.14217e-05
-8.42044e-08
1.14977e-05
-7.60014e-08
1.15657e-05
-6.85336e-08
1.16282e-05
-6.22646e-08
1.16865e-05
-5.7995e-08
1.17394e-05
-5.28066e-08
1.17859e-05
-4.64506e-08
1.18251e-05
-3.92347e-08
1.18534e-05
-2.88303e-08
1.18742e-05
-2.07247e-08
1.18926e-05
-1.80342e-08
1.19072e-05
-1.44331e-08
1.19157e-05
-8.40703e-09
1.19173e-05
-1.66282e-09
1.19104e-05
6.61134e-09
1.18968e-05
1.36164e-08
1.18786e-05
1.83825e-08
1.18563e-05
2.26673e-08
1.18291e-05
2.71955e-08
1.17959e-05
3.32817e-08
1.17564e-05
3.94242e-08
1.17112e-05
4.49902e-08
1.16611e-05
5.01118e-08
1.16074e-05
5.3941e-08
1.15501e-05
5.75114e-08
1.14878e-05
6.22781e-08
1.14189e-05
6.89079e-08
1.13419e-05
7.6506e-08
1.12613e-05
8.0873e-08
1.11794e-05
8.21149e-08
1.10945e-05
8.49898e-08
1.10053e-05
8.9203e-08
1.0912e-05
9.33498e-08
1.08141e-05
9.78814e-08
1.071e-05
1.03867e-07
1.06009e-05
1.09118e-07
1.04888e-05
1.12251e-07
1.03748e-05
1.14212e-07
1.02581e-05
1.16785e-07
1.01379e-05
1.20166e-07
1.00146e-05
1.2331e-07
9.88868e-06
1.25943e-07
9.75844e-06
1.30206e-07
9.62178e-06
1.36465e-07
9.48225e-06
1.39603e-07
9.34235e-06
1.39997e-07
9.20047e-06
1.41865e-07
9.0553e-06
1.45164e-07
8.90719e-06
1.48094e-07
8.75635e-06
1.50814e-07
8.60143e-06
1.54811e-07
8.4429e-06
1.58548e-07
8.28226e-06
1.60704e-07
8.1203e-06
1.6203e-07
7.95632e-06
1.63982e-07
7.78999e-06
1.66307e-07
7.62155e-06
1.68372e-07
7.44966e-06
1.71733e-07
7.27477e-06
1.74868e-07
7.09794e-06
1.76832e-07
6.91964e-06
1.78308e-07
6.73997e-06
1.79685e-07
6.55918e-06
1.8081e-07
6.37585e-06
1.83345e-07
6.18961e-06
1.86287e-07
6.00207e-06
1.87649e-07
5.81376e-06
1.88405e-07
5.62502e-06
1.88782e-07
5.4348e-06
1.90227e-07
5.2432e-06
1.91623e-07
5.051e-06
1.92227e-07
4.8588e-06
1.92199e-07
4.66691e-06
1.91877e-07
4.47454e-06
1.92361e-07
4.28071e-06
1.93815e-07
4.08622e-06
1.94494e-07
3.8928e-06
1.93446e-07
3.70055e-06
1.9227e-07
3.50869e-06
1.9188e-07
3.31717e-06
1.91543e-07
3.12599e-06
1.91209e-07
2.93535e-06
1.90676e-07
2.74536e-06
1.90031e-07
2.55611e-06
1.89279e-07
2.3675e-06
1.88645e-07
2.17931e-06
1.88231e-07
1.99218e-06
1.87164e-07
1.80677e-06
1.8545e-07
1.62265e-06
1.8415e-07
1.43958e-06
1.83081e-07
1.25816e-06
1.81436e-07
1.07927e-06
1.789e-07
9.03455e-07
1.75817e-07
7.30612e-07
1.72841e-07
5.60363e-07
1.70241e-07
3.92397e-07
1.67955e-07
2.27637e-07
1.64752e-07
6.74464e-08
1.60186e-07
-8.77809e-08
1.55224e-07
-2.38743e-07
1.50962e-07
-3.85516e-07
1.46775e-07
-5.28193e-07
1.42679e-07
-6.66799e-07
1.38608e-07
-8.0128e-07
1.34483e-07
-9.31588e-07
1.30308e-07
-1.05781e-06
1.26226e-07
-1.1801e-06
1.22281e-07
-1.29833e-06
1.18233e-07
-1.41261e-06
1.14273e-07
-1.52298e-06
1.10362e-07
-1.62954e-06
1.06564e-07
-1.73247e-06
1.02928e-07
-1.83191e-06
9.94449e-08
-1.92788e-06
9.59738e-08
-2.0203e-06
9.24267e-08
-2.10918e-06
8.88876e-08
-2.19471e-06
8.55336e-08
-2.27705e-06
8.23488e-08
-2.35631e-06
7.92679e-08
-2.43257e-06
7.62684e-08
-2.50578e-06
7.32137e-08
-2.57592e-06
7.01485e-08
-2.64315e-06
6.7236e-08
-2.70757e-06
6.44185e-08
-2.76922e-06
6.16564e-08
-2.82828e-06
5.90543e-08
-2.88496e-06
5.66862e-08
-2.93928e-06
5.43298e-08
-2.99117e-06
5.1883e-08
-3.04036e-06
4.91829e-08
-3.08698e-06
4.66142e-08
-3.13141e-06
4.44234e-08
-3.17395e-06
4.2529e-08
-3.21437e-06
4.04123e-08
-3.25234e-06
3.79728e-08
-3.28799e-06
3.56409e-08
-3.32159e-06
3.35916e-08
-3.35331e-06
3.17221e-08
-3.38324e-06
2.99286e-08
-3.4114e-06
2.81576e-08
-3.43798e-06
2.65791e-08
-3.46305e-06
2.50867e-08
-3.4864e-06
2.33247e-08
-3.50762e-06
2.12139e-08
-3.52722e-06
1.95929e-08
-3.54548e-06
1.82613e-08
-3.56241e-06
1.6932e-08
-3.57802e-06
1.56089e-08
-3.59232e-06
1.42962e-08
-3.60525e-06
1.29332e-08
-3.61678e-06
1.15195e-08
-3.62714e-06
1.03628e-08
-3.63654e-06
9.40486e-09
-3.64491e-06
8.36598e-09
-3.65199e-06
7.07286e-09
-3.65784e-06
5.84805e-09
-3.6627e-06
4.85787e-09
-3.66663e-06
3.93103e-09
-3.66965e-06
3.0182e-09
-3.6721e-06
2.4498e-09
-3.67404e-06
1.93064e-09
-3.67522e-06
1.17554e-09
-3.67565e-06
4.29251e-10
-3.67535e-06
-3.0684e-10
-3.67457e-06
-7.8029e-10
-3.67346e-06
-1.11189e-09
-3.67272e-06
-7.29497e-10
-3.67232e-06
-3.92447e-10
-3.67239e-06
4.55818e-11
-3.67141e-06
-9.77558e-10
-3.67109e-06
-3.18554e-10
-3.67088e-06
-2.08618e-10
-3.67122e-06
3.46851e-10
-3.67128e-06
7.56064e-11
-3.67105e-06
-2.40333e-10
-3.67132e-06
2.68874e-10
-3.67058e-06
-7.38481e-10
-3.66862e-06
-1.95256e-09
-3.66735e-06
-1.26485e-09
-3.66125e-06
-6.09251e-09
-3.65707e-06
-4.17461e-09
-3.66157e-06
4.50279e-09
-3.65981e-06
-1.75304e-09
-3.65756e-06
-2.24274e-09
-3.65802e-06
4.69919e-10
-3.61565e-06
-4.23634e-08
-3.58621e-06
-2.94331e-08
-3.61626e-06
3.0051e-08
-3.60288e-06
-1.33715e-08
-3.65213e-06
4.92514e-08
-3.78293e-06
1.30809e-07
-4.02373e-06
2.40799e-07
-4.23483e-06
2.1111e-07
-4.32942e-06
9.45858e-08
-4.42567e-06
9.62549e-08
-4.4843e-06
5.86401e-08
-4.54112e-06
5.68228e-08
-4.58195e-06
4.08258e-08
-4.61486e-06
3.29176e-08
-4.63854e-06
2.36773e-08
-4.66091e-06
2.23744e-08
-4.66728e-06
6.367e-09
-4.67935e-06
1.20683e-08
-4.70119e-06
2.18318e-08
-4.72185e-06
2.0667e-08
-4.7657e-06
4.38543e-08
-4.77996e-06
1.42559e-08
-4.7141e-06
-6.58718e-08
-4.63957e-06
-7.4537e-08
-4.42878e-06
-2.10801e-07
-4.06395e-06
-3.64828e-07
-3.70263e-06
-3.61338e-07
-3.39295e-06
-3.09695e-07
-3.17908e-06
-2.13878e-07
-2.99598e-06
-1.83114e-07
-2.8583e-06
-1.37684e-07
-2.73244e-06
-1.25859e-07
-2.6276e-06
-1.04849e-07
-2.53527e-06
-9.23341e-08
-2.42958e-06
-1.05689e-07
-2.35152e-06
-7.80708e-08
-2.26382e-06
-8.77068e-08
-2.14682e-06
-1.17002e-07
-2.11144e-06
-3.53772e-08
-1.9643e-06
-1.47137e-07
-1.74649e-06
-2.17808e-07
-1.84772e-06
1.0124e-07
-1.66649e-06
-1.81224e-07
-1.76883e-06
1.02345e-07
-1.59952e-06
-1.69307e-07
-2.22209e-06
6.22578e-07
-2.99595e-06
7.73856e-07
-2.8859e-06
-1.10047e-07
-2.6094e-06
-2.76507e-07
-2.16801e-06
-4.41391e-07
-1.72345e-06
-4.44561e-07
-1.32162e-06
-4.01812e-07
-9.85169e-07
-3.36455e-07
-6.95966e-07
-2.89218e-07
-4.30736e-07
-2.65246e-07
-1.74959e-07
-2.55792e-07
6.68873e-08
-2.4186e-07
2.97415e-07
-2.30545e-07
5.25906e-07
-2.28506e-07
7.53919e-07
-2.28027e-07
9.86959e-07
-2.33045e-07
1.22384e-06
-2.36878e-07
1.45833e-06
-2.34508e-07
1.69011e-06
-2.31784e-07
1.92687e-06
-2.36766e-07
2.17001e-06
-2.43132e-07
2.41339e-06
-2.43363e-07
2.65607e-06
-2.42679e-07
2.90401e-06
-2.47934e-07
3.15975e-06
-2.5573e-07
3.41886e-06
-2.59104e-07
3.67513e-06
-2.56279e-07
3.93066e-06
-2.55528e-07
4.18742e-06
-2.56761e-07
4.4489e-06
-2.61465e-07
4.71409e-06
-2.65176e-07
4.98134e-06
-2.67256e-07
5.25287e-06
-2.71528e-07
5.52731e-06
-2.74446e-07
5.80076e-06
-2.7345e-07
6.07176e-06
-2.71011e-07
6.34345e-06
-2.71703e-07
6.62017e-06
-2.76715e-07
6.90399e-06
-2.83821e-07
7.19466e-06
-2.90663e-07
7.48843e-06
-2.93781e-07
7.78475e-06
-2.96332e-07
8.08056e-06
-2.95828e-07
8.37738e-06
-2.96817e-07
8.67741e-06
-3.00038e-07
8.9787e-06
-3.0128e-07
9.28083e-06
-3.02109e-07
9.58597e-06
-3.05129e-07
9.89512e-06
-3.09148e-07
1.02063e-05
-3.11211e-07
1.05171e-05
-3.10802e-07
1.08264e-05
-3.09257e-07
1.11343e-05
-3.07873e-07
1.14422e-05
-3.07921e-07
1.17517e-05
-3.09502e-07
1.20638e-05
-3.12107e-07
1.23786e-05
-3.14786e-07
1.26959e-05
-3.17216e-07
1.30151e-05
-3.19226e-07
1.33358e-05
-3.20678e-07
1.36576e-05
-3.21794e-07
1.39803e-05
-3.22729e-07
1.43042e-05
-3.23825e-07
1.46298e-05
-3.25632e-07
1.49571e-05
-3.27247e-07
1.52858e-05
-3.28809e-07
1.56146e-05
-3.28851e-07
1.59441e-05
-3.29531e-07
1.62737e-05
-3.29621e-07
1.66057e-05
-3.32168e-07
1.69388e-05
-3.33206e-07
1.72722e-05
-3.33499e-07
1.76057e-05
-3.33617e-07
1.79401e-05
-3.34593e-07
1.82749e-05
-3.34943e-07
1.86093e-05
-3.34648e-07
1.89461e-05
-3.36986e-07
1.92866e-05
-3.40778e-07
1.96358e-05
-3.49449e-07
1.99925e-05
-3.56955e-07
2.03525e-05
-3.60286e-07
-4.0182e-07
-2.4939e-05
2.08486e-05
-2.55358e-05
4.31755e-06
-2.39135e-05
-1.62842e-07
-2.00055e-05
-7.52269e-06
-1.58442e-05
-1.08683e-05
-1.21404e-05
-1.16523e-05
-8.45169e-06
-1.0937e-05
-4.73785e-06
-9.46868e-06
-1.44287e-06
-7.79736e-06
1.58672e-06
-7.06719e-06
4.3008e-06
-7.02906e-06
6.84634e-06
-7.02912e-06
8.83222e-06
-5.88683e-06
9.20687e-06
-3.05431e-06
7.69301e-06
1.02658e-06
4.39135e-06
6.44242e-06
6.87329e-07
1.07513e-05
-3.18696e-06
1.24131e-05
-7.05283e-06
1.15013e-05
-1.03761e-05
8.32877e-06
-1.29771e-05
4.98848e-06
-1.45187e-05
2.31092e-06
-1.46246e-05
-5.2461e-07
-1.41039e-05
-2.12228e-06
-1.35691e-05
-2.47749e-06
-1.31359e-05
-2.2915e-06
-1.31423e-05
-1.30013e-06
-1.4156e-05
5.96622e-07
-1.63182e-05
3.0193e-06
-1.92628e-05
5.09761e-06
-2.2361e-05
6.61022e-06
-2.57971e-05
8.19315e-06
-2.97364e-05
9.30294e-06
-3.37194e-05
9.69027e-06
-3.67649e-05
8.69665e-06
-3.94489e-05
7.11313e-06
-4.24318e-05
6.03333e-06
-4.53729e-05
5.87664e-06
-4.80176e-05
5.80114e-06
-5.013e-05
4.74809e-06
-5.14581e-05
2.57631e-06
-5.22879e-05
1.26433e-06
-5.29838e-05
9.87215e-07
-5.36295e-05
1.13855e-06
-5.42663e-05
1.77782e-06
-5.50407e-05
2.23702e-06
-5.58745e-05
2.11238e-06
-5.65822e-05
1.28138e-06
-5.69207e-05
2.94814e-07
-5.71984e-05
1.07917e-07
-5.73378e-05
2.4781e-07
-5.7588e-05
9.41971e-07
-5.80669e-05
1.35682e-06
-5.86306e-05
1.31754e-06
-5.91553e-05
8.65708e-07
-5.93151e-05
-1.26687e-08
-5.90236e-05
-8.34615e-07
-5.84468e-05
-1.34026e-06
-5.78379e-05
-1.58218e-06
-5.73218e-05
-1.69256e-06
-5.69521e-05
-1.53313e-06
-5.67882e-05
-9.03364e-07
-5.65771e-05
-3.62479e-07
-5.61449e-05
-2.44257e-07
-5.53481e-05
-5.3995e-07
-5.44512e-05
-7.35443e-07
-5.38623e-05
-6.14341e-07
-5.36907e-05
-1.66086e-07
-5.36404e-05
-1.04698e-07
-5.3557e-05
-4.53981e-07
-5.32961e-05
-1.22785e-06
-5.26486e-05
-2.25052e-06
-5.14558e-05
-3.48849e-06
-4.98998e-05
-4.48256e-06
-4.83103e-05
-5.27111e-06
-4.70319e-05
-5.85173e-06
-4.61711e-05
-6.54342e-06
-4.60217e-05
-7.15185e-06
-4.41195e-05
-7.47953e-06
-3.87819e-05
-7.43074e-06
-3.16161e-05
-8.34758e-06
-2.45974e-05
-6.67022e-06
-2.08748e-05
-3.24647e-06
-1.83757e-05
-1.76728e-06
-1.74864e-05
7.50586e-08
-1.73828e-05
5.80235e-07
-1.76189e-05
8.69513e-07
-1.87534e-05
1.78829e-06
-2.02734e-05
2.10776e-06
-2.12642e-05
1.53173e-06
-2.21149e-05
1.15193e-06
-2.26935e-05
7.16049e-07
-2.30955e-05
4.25956e-07
-2.32554e-05
1.45646e-07
-2.33712e-05
5.69557e-08
-2.33646e-05
-6.7805e-08
-2.33433e-05
-1.97864e-07
-2.33432e-05
-4.1131e-07
-2.37764e-05
-6.04171e-07
-2.4188e-05
-2.96578e-07
-2.40463e-05
-2.41973e-07
-2.30193e-05
-9.45362e-07
-2.21447e-05
-7.41765e-07
-2.18676e-05
-2.82494e-07
-2.1469e-05
-5.03432e-08
-2.11805e-05
-1.85567e-08
-2.09561e-05
-1.60996e-07
-2.09376e-05
1.30304e-08
-2.11758e-05
1.78594e-07
-2.1408e-05
1.30396e-07
-2.13561e-05
-2.1081e-07
-2.12378e-05
-2.93663e-07
-2.10674e-05
-4.28921e-07
-2.0894e-05
-5.3078e-07
-2.07891e-05
-7.44874e-07
-2.07149e-05
-1.00782e-06
-2.07957e-05
-1.36263e-06
-2.04477e-05
-1.43513e-06
-1.9506e-05
-1.26663e-06
-1.80746e-05
-1.47833e-06
-1.68946e-05
-1.04855e-06
-1.64194e-05
-4.58807e-07
-1.6135e-05
-8.85102e-08
-1.60851e-05
9.39602e-08
-1.60941e-05
4.88645e-09
-1.62861e-05
2.1753e-07
-1.64185e-05
1.48588e-07
-1.63765e-05
-5.10956e-08
-1.63348e-05
-3.89013e-08
-1.62926e-05
-5.98193e-08
-1.62521e-05
-8.22531e-08
-1.62322e-05
-5.69496e-08
-1.6198e-05
-7.87836e-08
-1.61294e-05
-1.21942e-07
-1.60515e-05
-1.52564e-07
-1.59598e-05
-1.78487e-07
-1.58697e-05
-1.7955e-07
-1.57761e-05
-1.86818e-07
-1.56853e-05
-1.85731e-07
-1.55853e-05
-2.04095e-07
-1.54734e-05
-2.26605e-07
-1.53519e-05
-2.44238e-07
-1.52238e-05
-2.5221e-07
-1.50933e-05
-2.55737e-07
-1.49561e-05
-2.68468e-07
-1.48088e-05
-2.89521e-07
-1.46532e-05
-3.15507e-07
-1.44868e-05
-3.37162e-07
-1.43193e-05
-3.41281e-07
-1.41479e-05
-3.40367e-07
-1.39681e-05
-3.49061e-07
-1.37769e-05
-3.76658e-07
-1.35723e-05
-4.13487e-07
-1.33614e-05
-4.2721e-07
-1.31519e-05
-4.25702e-07
-1.29345e-05
-4.34686e-07
-1.27032e-05
-4.56144e-07
-1.24572e-05
-4.81055e-07
-1.22064e-05
-4.96717e-07
-1.19549e-05
-5.07233e-07
-1.16988e-05
-5.17904e-07
-1.1432e-05
-5.3694e-07
-1.11582e-05
-5.47773e-07
-1.08774e-05
-5.59458e-07
-1.05802e-05
-5.89706e-07
-1.02736e-05
-6.12969e-07
-9.96469e-06
-6.17496e-07
-9.65615e-06
-6.12933e-07
-9.34028e-06
-6.31852e-07
-9.00686e-06
-6.69093e-07
-8.6617e-06
-6.93862e-07
-8.31531e-06
-6.93069e-07
-7.96653e-06
-6.89772e-07
-7.60871e-06
-7.08518e-07
-7.24009e-06
-7.44039e-07
-6.85613e-06
-7.76944e-07
-6.45973e-06
-8.0129e-07
-6.05412e-06
-8.1287e-07
-5.64586e-06
-8.04199e-07
-5.24104e-06
-7.98354e-07
-4.83221e-06
-8.16526e-07
-4.41704e-06
-8.36469e-07
-3.98746e-06
-8.72188e-07
-3.54334e-06
-8.9968e-07
-3.09216e-06
-9.06953e-07
-2.64122e-06
-9.01432e-07
-2.20241e-06
-8.74293e-07
-1.77361e-06
-8.6293e-07
-1.34552e-06
-8.72736e-07
-9.12892e-07
-8.82174e-07
-4.77687e-07
-8.75406e-07
-4.75002e-08
-8.49229e-07
3.68896e-07
-8.1897e-07
7.67866e-07
-7.91949e-07
1.15553e-06
-7.78894e-07
1.54031e-06
-7.76066e-07
1.92279e-06
-7.6971e-07
2.29658e-06
-7.49294e-07
2.65709e-06
-7.15321e-07
3.0061e-06
-6.88584e-07
3.34838e-06
-6.76357e-07
3.68764e-06
-6.75665e-07
4.02095e-06
-6.69086e-07
4.34515e-06
-6.51818e-07
4.65992e-06
-6.30785e-07
4.96937e-06
-6.14118e-07
5.27409e-06
-6.04039e-07
5.57292e-06
-5.97251e-07
5.86319e-06
-5.83585e-07
6.14243e-06
-5.59323e-07
6.41496e-06
-5.38591e-07
6.68459e-06
-5.35419e-07
6.951e-06
-5.32947e-07
7.21129e-06
-5.22552e-07
7.46435e-06
-5.08826e-07
7.70872e-06
-4.8893e-07
7.94332e-06
-4.64734e-07
8.17089e-06
-4.50087e-07
8.39369e-06
-4.43498e-07
8.61279e-06
-4.38801e-07
8.82567e-06
-4.28137e-07
9.03174e-06
-4.14497e-07
9.22957e-06
-3.95995e-07
9.41924e-06
-3.75014e-07
9.6009e-06
-3.59572e-07
9.77535e-06
-3.47947e-07
9.94529e-06
-3.39448e-07
1.01088e-05
-3.29064e-07
1.02656e-05
-3.15507e-07
1.04134e-05
-2.96718e-07
1.05523e-05
-2.75966e-07
1.06846e-05
-2.6204e-07
1.08117e-05
-2.524e-07
1.09337e-05
-2.42732e-07
1.10491e-05
-2.30474e-07
1.11568e-05
-2.15255e-07
1.12559e-05
-1.98452e-07
1.13459e-05
-1.81823e-07
1.1428e-05
-1.6659e-07
1.15033e-05
-1.52177e-07
1.15744e-05
-1.39551e-07
1.16399e-05
-1.27829e-07
1.16992e-05
-1.16553e-07
1.17508e-05
-1.04063e-07
1.17949e-05
-9.05802e-08
1.18316e-05
-7.60441e-08
1.18605e-05
-5.83721e-08
1.18846e-05
-4.48647e-08
1.19042e-05
-3.70377e-08
1.19179e-05
-2.78043e-08
1.19244e-05
-1.48613e-08
1.19239e-05
-1.17121e-09
1.19166e-05
1.33067e-08
1.19049e-05
2.53611e-08
1.18884e-05
3.49041e-08
1.18665e-05
4.4593e-08
1.1839e-05
5.53553e-08
1.18037e-05
6.87166e-08
1.17622e-05
8.0861e-08
1.17172e-05
8.9756e-08
1.16686e-05
9.872e-08
1.16153e-05
1.07445e-07
1.15569e-05
1.1603e-07
1.14931e-05
1.26042e-07
1.14226e-05
1.389e-07
1.1347e-05
1.5205e-07
1.12676e-05
1.60315e-07
1.11857e-05
1.6453e-07
1.10998e-05
1.70976e-07
1.10095e-05
1.79556e-07
1.09144e-05
1.88431e-07
1.08148e-05
1.97409e-07
1.07111e-05
2.07273e-07
1.06041e-05
2.16092e-07
1.04933e-05
2.23116e-07
1.03786e-05
2.29257e-07
1.02603e-05
2.35217e-07
1.01388e-05
2.41652e-07
1.00147e-05
2.47442e-07
9.88775e-06
2.52877e-07
9.75662e-06
2.61246e-07
9.62109e-06
2.71723e-07
9.48258e-06
2.7812e-07
9.34241e-06
2.80441e-07
9.19963e-06
2.84683e-07
9.0533e-06
2.91487e-07
8.90362e-06
2.97763e-07
8.75148e-06
3.02935e-07
8.59664e-06
3.09479e-07
8.43942e-06
3.15774e-07
8.27981e-06
3.20314e-07
8.11744e-06
3.2452e-07
7.95188e-06
3.2954e-07
7.7838e-06
3.34362e-07
7.61417e-06
3.37917e-07
7.44301e-06
3.42748e-07
7.27002e-06
3.47877e-07
7.0936e-06
3.53284e-07
6.91378e-06
3.58219e-07
6.7323e-06
3.61235e-07
6.55045e-06
3.62729e-07
6.36776e-06
3.66111e-07
6.18284e-06
3.71244e-07
5.99497e-06
3.75656e-07
5.80511e-06
3.78319e-07
5.6158e-06
3.78127e-07
5.42656e-06
3.79463e-07
5.23573e-06
3.82448e-07
5.04273e-06
3.85234e-07
4.84943e-06
3.85505e-07
4.657e-06
3.84311e-07
4.4646e-06
3.84758e-07
4.27168e-06
3.86741e-07
4.07752e-06
3.88668e-07
3.8831e-06
3.87912e-07
3.69022e-06
3.85189e-07
3.49834e-06
3.83798e-07
3.30697e-06
3.82961e-07
3.11585e-06
3.82371e-07
2.92476e-06
3.81829e-07
2.73417e-06
3.80673e-07
2.54468e-06
3.7883e-07
2.35637e-06
3.77018e-07
2.16909e-06
3.75563e-07
1.98287e-06
3.73434e-07
1.79771e-06
3.70659e-07
1.61367e-06
3.68233e-07
1.4312e-06
3.65569e-07
1.25091e-06
3.61737e-07
1.07315e-06
3.56665e-07
8.97947e-07
3.51017e-07
7.25366e-07
3.45411e-07
5.55568e-07
3.40025e-07
3.88906e-07
3.34604e-07
2.25601e-07
3.28048e-07
6.57619e-08
3.2002e-07
-8.97071e-08
3.10692e-07
-2.4092e-07
3.02177e-07
-3.87797e-07
2.93655e-07
-5.30373e-07
2.8526e-07
-6.6897e-07
2.77208e-07
-8.03676e-07
2.69189e-07
-9.34399e-07
2.61029e-07
-1.06115e-06
2.52976e-07
-1.18383e-06
2.44956e-07
-1.30212e-06
2.36516e-07
-1.41629e-06
2.28434e-07
-1.52663e-06
2.20693e-07
-1.63329e-06
2.13228e-07
-1.73638e-06
2.06018e-07
-1.83591e-06
1.98986e-07
-1.9319e-06
1.91967e-07
-2.02433e-06
1.84876e-07
-2.11325e-06
1.77819e-07
-2.1988e-06
1.71099e-07
-2.28117e-06
1.64733e-07
-2.36057e-06
1.58672e-07
-2.43706e-06
1.52774e-07
-2.51043e-06
1.46595e-07
-2.58062e-06
1.40342e-07
-2.64788e-06
1.34499e-07
-2.71237e-06
1.28914e-07
-2.77416e-06
1.23449e-07
-2.83329e-06
1.18187e-07
-2.88985e-06
1.13243e-07
-2.94382e-06
1.08303e-07
-2.9953e-06
1.03348e-07
-3.04434e-06
9.82156e-08
-3.09109e-06
9.33525e-08
-3.1357e-06
8.90256e-08
-3.17827e-06
8.50946e-08
-3.21862e-06
8.07554e-08
-3.25661e-06
7.59501e-08
-3.29225e-06
7.12722e-08
-3.32584e-06
6.7173e-08
-3.35766e-06
6.35345e-08
-3.38777e-06
6.00378e-08
-3.41605e-06
5.64409e-08
-3.44243e-06
5.29694e-08
-3.46694e-06
4.9583e-08
-3.48975e-06
4.61259e-08
-3.51104e-06
4.24945e-08
-3.53079e-06
3.93477e-08
-3.54915e-06
3.66155e-08
-3.56618e-06
3.39661e-08
-3.58174e-06
3.11692e-08
-3.59587e-06
2.8427e-08
-3.60868e-06
2.57519e-08
-3.62029e-06
2.31297e-08
-3.63069e-06
2.07727e-08
-3.63989e-06
1.8617e-08
-3.64782e-06
1.62944e-08
-3.65472e-06
1.39735e-08
-3.66065e-06
1.17736e-08
-3.66573e-06
9.94918e-09
-3.66975e-06
7.95304e-09
-3.67278e-06
6.05995e-09
-3.67481e-06
4.49136e-09
-3.67623e-06
3.34819e-09
-3.67711e-06
2.05327e-09
-3.67772e-06
1.03628e-09
-3.6774e-06
-6.20056e-10
-3.67674e-06
-1.44248e-09
-3.67543e-06
-2.40621e-09
-3.67424e-06
-1.91105e-09
-3.67236e-06
-2.26331e-09
-3.67117e-06
-1.15587e-09
-3.66918e-06
-2.97135e-09
-3.66879e-06
-7.09055e-10
-3.67017e-06
1.17722e-09
-3.67151e-06
1.70588e-09
-3.67364e-06
2.20436e-09
-3.67247e-06
-1.41493e-09
-3.67206e-06
-1.42394e-10
-3.66568e-06
-7.10752e-09
-3.66347e-06
-4.16228e-09
-3.67031e-06
5.58049e-09
-3.67528e-06
-1.10861e-09
-3.67668e-06
-2.77093e-09
-3.67334e-06
1.1695e-09
-3.62644e-06
-4.86504e-08
-3.59813e-06
-3.05476e-08
-3.63736e-06
3.97084e-08
-3.67326e-06
-6.45716e-09
-3.7633e-06
6.06164e-08
-3.89533e-06
1.62082e-07
-4.15231e-06
2.43625e-07
-4.36064e-06
2.57581e-07
-4.43408e-06
2.04262e-07
-4.45969e-06
2.66419e-07
-4.45776e-06
2.09183e-07
-4.5065e-06
1.43341e-07
-4.5347e-06
1.24467e-07
-4.56993e-06
9.38753e-08
-4.59162e-06
7.85249e-08
-4.60231e-06
5.15202e-08
-4.60475e-06
3.53681e-08
-4.62673e-06
4.56607e-08
-4.66247e-06
5.81199e-08
-4.70423e-06
4.8124e-08
-4.75615e-06
6.40055e-08
-4.75257e-06
1.82699e-08
-4.64789e-06
-8.40172e-08
-4.52106e-06
-8.2969e-08
-4.27853e-06
-2.28278e-07
-3.93863e-06
-4.05777e-07
-3.5878e-06
-4.25367e-07
-3.34278e-06
-4.55831e-07
-3.24264e-06
-4.64963e-07
-3.18037e-06
-4.23616e-07
-3.08546e-06
-4.04614e-07
-3.00344e-06
-2.95902e-07
-2.89151e-06
-2.95036e-07
-2.78892e-06
-2.40268e-07
-2.68731e-06
-2.27449e-07
-2.60914e-06
-1.83015e-07
-2.52743e-06
-1.74041e-07
-2.41158e-06
-2.21555e-07
-2.37172e-06
-1.17928e-07
-2.2169e-06
-2.42534e-07
-2.01566e-06
-3.18235e-07
-2.0577e-06
6.68446e-09
-1.9416e-06
-2.63233e-07
-2.18128e-06
2.18833e-08
-1.93802e-06
-1.42024e-07
-2.59123e-06
4.71988e-07
-3.18627e-06
6.97405e-07
-3.11314e-06
-2.42413e-07
-2.71004e-06
2.19507e-07
-1.9161e-06
-2.00325e-08
-1.55714e-06
-4.68972e-07
-1.3177e-06
-5.15896e-07
-1.17452e-06
-5.84526e-07
-1.0171e-06
-6.01933e-07
-8.32498e-07
-5.86355e-07
-6.3038e-07
-5.38511e-07
-4.25288e-07
-4.94245e-07
-2.18458e-07
-4.72004e-07
-9.57594e-09
-4.64603e-07
2.0286e-07
-4.54226e-07
4.20134e-07
-4.47749e-07
6.42872e-07
-4.51174e-07
8.69998e-07
-4.55085e-07
1.10089e-06
-4.6387e-07
1.33131e-06
-4.67231e-07
1.56254e-06
-4.65684e-07
1.79662e-06
-4.65799e-07
2.03478e-06
-4.74866e-07
2.27645e-06
-4.84752e-07
2.52056e-06
-4.87437e-07
2.76837e-06
-4.9045e-07
3.01996e-06
-4.99496e-07
3.274e-06
-5.09742e-07
3.53053e-06
-5.1562e-07
3.78929e-06
-5.15036e-07
4.05026e-06
-5.16497e-07
4.31357e-06
-5.20067e-07
4.57808e-06
-5.2598e-07
4.84511e-06
-5.32217e-07
5.11619e-06
-5.38341e-07
5.38969e-06
-5.45026e-07
5.66399e-06
-5.4875e-07
5.93869e-06
-5.48161e-07
6.21429e-06
-5.46607e-07
6.49254e-06
-5.49951e-07
6.77394e-06
-5.58107e-07
7.05859e-06
-5.68452e-07
7.34585e-06
-5.77908e-07
7.6355e-06
-5.83421e-07
7.9274e-06
-5.88213e-07
8.22178e-06
-5.90184e-07
8.5188e-06
-5.93821e-07
8.8184e-06
-5.99618e-07
9.11968e-06
-6.02538e-07
9.4221e-06
-6.04506e-07
9.72597e-06
-6.08982e-07
1.00311e-05
-6.14281e-07
1.03374e-05
-6.17472e-07
1.06449e-05
-6.18241e-07
1.09537e-05
-6.18072e-07
1.12643e-05
-6.18427e-07
1.15764e-05
-6.20021e-07
1.18898e-05
-6.22883e-07
1.22043e-05
-6.26599e-07
1.25203e-05
-6.30688e-07
1.28379e-05
-6.34795e-07
1.31572e-05
-6.38482e-07
1.34781e-05
-6.41459e-07
1.38001e-05
-6.43738e-07
1.41233e-05
-6.45766e-07
1.44478e-05
-6.48226e-07
1.47738e-05
-6.5147e-07
1.5101e-05
-6.54298e-07
1.54289e-05
-6.56607e-07
1.57572e-05
-6.56976e-07
1.60866e-05
-6.58716e-07
1.64176e-05
-6.60377e-07
1.67498e-05
-6.64105e-07
1.70823e-05
-6.65454e-07
1.74152e-05
-6.6601e-07
1.77492e-05
-6.6729e-07
1.80847e-05
-6.69708e-07
1.84209e-05
-6.70695e-07
1.87576e-05
-6.70937e-07
1.9095e-05
-6.73962e-07
1.94331e-05
-6.7843e-07
1.97715e-05
-6.87441e-07
2.01098e-05
-6.94876e-07
2.04494e-05
-6.99552e-07
-7.06638e-07
-2.23904e-05
2.60543e-05
-2.12529e-05
3.17978e-06
-1.88941e-05
-2.52198e-06
-1.64052e-05
-1.0012e-05
-1.51397e-05
-1.21343e-05
-1.41766e-05
-1.26156e-05
-1.29041e-05
-1.22067e-05
-1.16671e-05
-1.06983e-05
-1.1208e-05
-8.25605e-06
-1.18956e-05
-6.38005e-06
-1.31228e-05
-5.81379e-06
-1.41981e-05
-5.95539e-06
-1.49703e-05
-5.11539e-06
-1.59968e-05
-2.02847e-06
-1.73597e-05
2.38888e-06
-1.82879e-05
7.37012e-06
-1.80795e-05
1.05423e-05
-1.71337e-05
1.14669e-05
-1.6738e-05
1.11052e-05
-1.75281e-05
9.11856e-06
-1.92723e-05
6.73244e-06
-2.13924e-05
4.43089e-06
-2.41068e-05
2.18971e-06
-2.72182e-05
9.89041e-07
-3.01069e-05
4.11255e-07
-3.27523e-05
3.53979e-07
-3.5287e-05
1.23475e-06
-3.7671e-05
2.98098e-06
-4.00098e-05
5.35884e-06
-4.22399e-05
7.32863e-06
-4.40187e-05
8.38812e-06
-4.49649e-05
9.13814e-06
-4.51035e-05
9.44042e-06
-4.4737e-05
9.32376e-06
-4.46125e-05
8.5723e-06
-4.55803e-05
8.08259e-06
-4.74828e-05
7.94825e-06
-4.9403e-05
7.81591e-06
-5.08898e-05
7.28811e-06
-5.19503e-05
5.80311e-06
-5.27728e-05
3.36756e-06
-5.3486e-05
1.97598e-06
-5.41192e-05
1.62103e-06
-5.46678e-05
1.69983e-06
-5.50502e-05
2.18823e-06
-5.53937e-05
2.58083e-06
-5.57969e-05
2.51579e-06
-5.61987e-05
1.64538e-06
-5.65764e-05
6.70409e-07
-5.69358e-05
4.67307e-07
-5.72579e-05
5.78534e-07
-5.74396e-05
1.1439e-06
-5.77774e-05
1.69458e-06
-5.81896e-05
1.72981e-06
-5.8674e-05
1.33012e-06
-5.9037e-05
3.42214e-07
-5.92191e-05
-6.52948e-07
-5.9263e-05
-1.29641e-06
-5.92865e-05
-1.55844e-06
-5.93378e-05
-1.63801e-06
-5.9326e-05
-1.52997e-06
-5.91457e-05
-1.07098e-06
-5.86574e-05
-8.52561e-07
-5.76454e-05
-1.26741e-06
-5.61477e-05
-2.05019e-06
-5.46723e-05
-2.20974e-06
-5.35796e-05
-1.67532e-06