/*--------------------------------*- C++ -*----------------------------------*\
| =========                 |                                                 |
| \\      /  F ield         | OpenFOAM: The Open Source CFD Toolbox           |
|  \\    /   O peration     | Version:  v2006                                 |
|   \\  /    A nd           | Website:  www.openfoam.com                      |
|    \\/     M anipulation  |                                                 |
\*---------------------------------------------------------------------------*/
FoamFile
{
    version     2.0;
    format      ascii;
    class       volScalarField;
    location    "8.3";
    object      nut;
}
// * * * * * * * * * * * * * * * * * * * * * * * * * * * * * * * * * * * * * //

dimensions      [0 2 -1 0 0 0 0];


internalField   nonuniform List<scalar> 
33000
(
1.58957e-09
2.64393e-09
2.01778e-09
1.97556e-09
1.86938e-09
1.9662e-09
2.45144e-09
3.23602e-09
4.21351e-09
4.72257e-09
4.27782e-09
3.81242e-09
3.66513e-09
3.71248e-09
3.90272e-09
3.95966e-09
4.24676e-09
5.57376e-09
7.92481e-09
1.19826e-08
1.84607e-08
2.36508e-08
2.73568e-08
3.33516e-08
4.24274e-08
5.57303e-08
7.55025e-08
9.84918e-08
9.48283e-08
6.48765e-08
4.11492e-08
3.02027e-08
2.94866e-08
3.44351e-08
4.00062e-08
4.56938e-08
5.31305e-08
5.86983e-08
5.86727e-08
5.63923e-08
5.52283e-08
5.53558e-08
5.53885e-08
5.60137e-08
5.58297e-08
5.37971e-08
5.10858e-08
4.88408e-08
4.76562e-08
4.74605e-08
4.82201e-08
4.81934e-08
4.71457e-08
4.53671e-08
4.33089e-08
4.1445e-08
3.99048e-08
3.8814e-08
3.81617e-08
3.84818e-08
4.01594e-08
4.2923e-08
4.55284e-08
4.71468e-08
4.7898e-08
4.79611e-08
4.75986e-08
4.6732e-08
4.47685e-08
4.19101e-08
3.89199e-08
3.62805e-08
3.41411e-08
3.25103e-08
3.11413e-08
2.99379e-08
2.93712e-08
3.01338e-08
4.06442e-08
4.92994e-08
4.7355e-08
5.14772e-08
5.24279e-08
6.51408e-08
7.52816e-08
8.23805e-08
8.30748e-08
8.39201e-08
8.1409e-08
8.17224e-08
8.12326e-08
8.01299e-08
7.77953e-08
7.50231e-08
7.20985e-08
6.85474e-08
6.37749e-08
5.76854e-08
5.318e-08
5.55411e-08
5.61906e-08
5.41763e-08
5.28187e-08
5.1114e-08
5.30107e-08
5.4485e-08
5.70127e-08
5.79648e-08
5.76535e-08
5.57884e-08
5.45609e-08
5.36894e-08
5.30536e-08
5.25199e-08
5.09512e-08
4.94448e-08
4.9426e-08
5.6764e-08
5.87088e-08
5.67923e-08
5.67269e-08
5.70483e-08
6.01881e-08
6.10355e-08
6.22165e-08
6.2052e-08
6.13416e-08
6.14031e-08
6.1773e-08
6.19361e-08
6.23351e-08
6.26115e-08
6.28155e-08
6.30045e-08
6.31465e-08
6.33223e-08
6.35901e-08
6.39027e-08
6.42246e-08
6.45132e-08
6.48377e-08
6.52254e-08
6.56925e-08
6.61647e-08
6.65802e-08
6.6946e-08
6.73176e-08
6.77593e-08
6.83135e-08
6.89253e-08
6.9456e-08
6.98488e-08
7.03425e-08
7.10377e-08
7.17765e-08
7.25212e-08
7.32745e-08
7.40612e-08
7.49201e-08
7.58582e-08
7.68692e-08
7.79432e-08
7.91688e-08
8.03876e-08
8.16196e-08
8.31124e-08
8.48905e-08
8.66548e-08
8.82729e-08
9.01604e-08
9.25846e-08
9.54665e-08
9.83852e-08
1.01151e-07
1.04439e-07
1.0872e-07
1.13922e-07
1.20317e-07
1.27652e-07
1.35093e-07
1.43657e-07
1.54148e-07
1.66597e-07
1.83169e-07
2.04085e-07
2.30785e-07
2.64386e-07
3.02515e-07
3.48994e-07
3.61526e-07
3.62797e-07
3.64398e-07
3.66051e-07
3.67561e-07
3.68873e-07
3.70109e-07
3.66612e-07
3.20245e-07
2.85694e-07
2.58523e-07
2.35522e-07
2.15122e-07
1.97396e-07
1.82844e-07
1.70842e-07
1.60804e-07
1.52014e-07
1.43898e-07
1.3653e-07
1.30265e-07
1.25103e-07
1.20321e-07
1.15636e-07
1.11402e-07
1.07611e-07
1.04249e-07
1.0142e-07
9.89122e-08
9.64869e-08
9.41352e-08
9.1967e-08
9.00004e-08
8.82373e-08
8.67302e-08
8.53637e-08
8.40398e-08
8.27485e-08
8.15178e-08
8.0371e-08
7.93309e-08
7.84356e-08
7.76138e-08
7.67838e-08
7.59518e-08
7.51455e-08
7.43973e-08
7.37162e-08
7.30805e-08
7.24687e-08
7.18852e-08
7.13318e-08
7.07979e-08
7.02566e-08
6.97054e-08
6.91793e-08
6.86702e-08
6.82045e-08
6.78006e-08
6.73781e-08
6.69101e-08
6.64591e-08
6.60368e-08
6.56434e-08
6.52845e-08
6.49276e-08
6.45613e-08
6.41926e-08
6.38384e-08
6.35095e-08
6.31925e-08
6.28848e-08
6.25772e-08
6.22627e-08
6.19516e-08
6.16585e-08
6.14069e-08
6.1186e-08
6.09339e-08
6.06512e-08
6.03829e-08
6.01355e-08
5.99004e-08
5.96878e-08
5.95027e-08
5.93202e-08
5.9123e-08
5.89182e-08
5.87259e-08
5.85517e-08
5.83783e-08
5.8205e-08
5.8079e-08
5.79891e-08
5.78663e-08
5.77174e-08
5.75902e-08
5.74917e-08
5.73966e-08
5.73087e-08
5.72514e-08
5.72025e-08
5.71306e-08
5.70457e-08
5.69643e-08
5.68595e-08
5.67545e-08
5.66941e-08
5.66542e-08
5.66255e-08
5.66268e-08
5.66488e-08
5.66893e-08
5.67903e-08
5.69271e-08
5.7079e-08
5.72469e-08
5.74579e-08
5.77641e-08
5.81719e-08
5.87007e-08
5.93502e-08
6.01403e-08
6.11308e-08
6.23686e-08
6.38389e-08
6.55215e-08
6.74884e-08
6.98166e-08
7.25492e-08
7.57659e-08
7.95457e-08
8.39906e-08
8.9209e-08
9.54071e-08
1.02829e-07
1.11663e-07
1.1193e-07
1.11966e-07
1.12172e-07
1.12525e-07
1.13011e-07
1.1362e-07
1.14343e-07
1.15174e-07
1.16098e-07
1.17085e-07
1.18112e-07
1.19152e-07
1.2017e-07
1.21143e-07
1.22065e-07
1.22931e-07
1.23744e-07
1.24503e-07
1.25209e-07
1.25859e-07
1.26451e-07
1.26986e-07
1.27467e-07
1.27894e-07
1.28266e-07
1.28581e-07
1.28837e-07
1.26022e-07
1.2116e-07
1.16767e-07
1.12775e-07
1.09125e-07
1.05781e-07
1.02719e-07
9.9894e-08
9.72724e-08
9.48347e-08
9.2565e-08
9.04345e-08
8.84256e-08
8.65264e-08
8.47403e-08
8.30705e-08
8.14942e-08
7.99831e-08
7.85274e-08
7.71476e-08
7.58444e-08
7.45996e-08
7.33988e-08
7.22389e-08
7.11214e-08
7.00435e-08
6.89893e-08
6.79561e-08
6.69663e-08
6.60155e-08
6.5077e-08
6.41569e-08
6.32577e-08
6.23793e-08
6.15202e-08
6.06846e-08
5.98733e-08
5.90731e-08
5.82849e-08
5.75123e-08
5.67668e-08
5.60348e-08
5.53197e-08
5.46221e-08
5.39465e-08
5.32693e-08
5.26132e-08
5.19663e-08
5.13418e-08
5.07256e-08
5.01355e-08
4.95507e-08
4.89691e-08
4.83902e-08
4.78211e-08
4.73091e-08
4.67226e-08
4.61988e-08
4.56026e-08
4.50997e-08
4.45713e-08
4.41218e-08
4.37087e-08
4.31977e-08
4.25436e-08
4.21137e-08
4.14884e-08
4.12941e-08
4.16464e-08
4.10012e-08
3.96617e-08
3.8943e-08
3.65614e-08
3.65544e-08
3.68661e-08
3.61996e-08
3.31048e-08
3.07688e-08
3.11615e-08
3.15321e-08
3.14555e-08
3.14242e-08
3.13426e-08
3.12891e-08
3.10829e-08
3.07737e-08
3.00439e-08
2.96242e-08
2.92362e-08
2.98965e-08
3.05929e-08
3.08294e-08
3.04989e-08
2.93198e-08
2.75996e-08
2.93239e-08
3.39639e-08
3.72417e-08
4.11596e-08
4.26464e-08
4.61544e-08
4.69159e-08
5.02594e-08
5.0516e-08
5.38514e-08
5.53944e-08
5.63501e-08
6.09582e-08
6.68318e-08
5.89701e-08
6.5692e-08
5.38871e-08
6.2509e-08
5.24452e-08
5.94038e-08
5.11468e-08
2.87106e-08
3.45623e-08
4.80467e-08
5.86875e-08
7.93794e-08
8.85036e-08
9.65657e-08
1.04141e-07
1.10868e-07
1.16707e-07
1.21758e-07
1.26006e-07
1.29498e-07
1.32395e-07
1.34784e-07
1.36828e-07
1.38617e-07
1.40138e-07
1.41383e-07
1.37344e-07
1.2453e-07
1.14267e-07
1.05275e-07
9.70781e-08
8.9826e-08
8.37767e-08
7.86162e-08
7.39878e-08
6.9712e-08
6.57746e-08
6.22717e-08
5.90737e-08
5.60825e-08
5.33821e-08
5.09773e-08
4.87722e-08
4.668e-08
4.46705e-08
4.27516e-08
4.09738e-08
3.93205e-08
3.77859e-08
3.63717e-08
3.50222e-08
3.37437e-08
3.2558e-08
3.14372e-08
3.03597e-08
2.93378e-08
2.83833e-08
2.74904e-08
2.66488e-08
2.58475e-08
2.50784e-08
2.43374e-08
2.36251e-08
2.29433e-08
2.22914e-08
2.16692e-08
2.10756e-08
2.05082e-08
1.99647e-08
1.94424e-08
1.89415e-08
1.84582e-08
1.80014e-08
1.75546e-08
1.71452e-08
1.6718e-08
1.63536e-08
1.59409e-08
1.56209e-08
1.52412e-08
1.49402e-08
1.46027e-08
1.42918e-08
1.40651e-08
1.36747e-08
1.35406e-08
1.31042e-08
1.12776e-08
4.1668e-09
5.88599e-09
1.09131e-08
5.56792e-09
5.80253e-09
5.3252e-09
5.30058e-09
5.50524e-09
6.37346e-09
6.46341e-09
6.44373e-09
6.90881e-09
8.53787e-09
1.20952e-08
1.55039e-08
1.67822e-08
2.26214e-08
3.09276e-08
4.44183e-08
7.47595e-08
1.06164e-07
1.36731e-07
1.77264e-07
2.28281e-07
2.75895e-07
3.16268e-07
3.49956e-07
3.77647e-07
4.04148e-07
4.24889e-07
4.33749e-07
4.5041e-07
4.90547e-07
5.37726e-07
5.75681e-07
5.9019e-07
5.77307e-07
5.51817e-07
4.58104e-07
3.62123e-07
3.10463e-07
3.34629e-07
2.96037e-07
2.83719e-07
2.79553e-07
2.34187e-07
1.82022e-07
1.74912e-07
2.28017e-07
2.20821e-07
2.19582e-07
2.00141e-07
1.85857e-07
1.58198e-07
1.45549e-07
1.81141e-07
1.37494e-07
9.19756e-08
8.25646e-08
8.80525e-08
1.35507e-07
1.8956e-07
1.91451e-07
1.39974e-07
1.13279e-07
1.19787e-07
1.97078e-07
2.37273e-07
2.25683e-07
2.0423e-07
1.623e-07
7.47171e-08
4.73652e-08
4.22897e-08
4.90578e-08
6.42895e-08
7.99361e-08
1.05164e-07
1.14458e-07
1.15172e-07
1.05052e-07
1.33057e-07
2.32279e-07
2.41465e-07
2.41844e-07
2.56237e-07
2.70788e-07
2.78149e-07
2.73147e-07
2.54678e-07
2.27069e-07
1.96374e-07
1.77311e-07
1.7061e-07
1.79789e-07
1.96909e-07
2.20044e-07
2.35227e-07
2.49332e-07
2.50226e-07
2.34408e-07
2.04008e-07
1.68526e-07
1.37667e-07
1.13414e-07
1.00367e-07
9.87227e-08
1.00809e-07
9.35374e-08
9.25705e-08
1.00357e-07
1.11589e-07
1.01483e-07
7.41209e-08
6.90675e-08
5.87999e-08
8.01949e-08
6.4846e-08
3.93067e-08
2.12456e-08
2.24194e-08
4.48545e-08
4.27685e-08
6.18812e-08
7.03709e-08
1.00977e-07
1.38052e-07
1.5509e-07
1.60607e-07
1.64949e-07
1.68018e-07
1.69948e-07
1.71022e-07
1.71803e-07
1.72511e-07
1.73152e-07
1.73559e-07
1.73835e-07
1.74107e-07
1.74459e-07
1.74913e-07
1.75387e-07
1.75672e-07
1.70904e-07
1.63124e-07
1.5283e-07
1.43113e-07
1.38474e-07
1.40022e-07
1.39038e-07
1.31912e-07
1.2304e-07
1.16638e-07
1.15546e-07
1.17519e-07
1.15093e-07
1.08346e-07
1.02886e-07
1.0123e-07
1.01688e-07
1.00894e-07
9.78299e-08
9.62903e-08
9.39334e-08
8.94149e-08
8.72842e-08
8.74483e-08
8.79872e-08
8.56424e-08
8.15705e-08
7.93686e-08
7.97512e-08
7.91901e-08
7.68846e-08
7.44079e-08
7.14924e-08
6.94571e-08
6.82452e-08
6.79546e-08
6.82313e-08
6.71322e-08
6.53861e-08
6.26127e-08
6.02714e-08
5.91763e-08
5.91313e-08
6.04176e-08
6.11529e-08
6.04307e-08
5.92799e-08
5.86126e-08
5.89571e-08
6.039e-08
6.22167e-08
6.30411e-08
6.25315e-08
6.21575e-08
6.30914e-08
6.4884e-08
6.62835e-08
6.63544e-08
6.56759e-08
6.56517e-08
6.65056e-08
6.75287e-08
6.76775e-08
6.74236e-08
6.74513e-08
6.83012e-08
6.99794e-08
7.061e-08
6.97772e-08
6.897e-08
6.90938e-08
6.99957e-08
7.15595e-08
7.35105e-08
7.45112e-08
7.44172e-08
7.39739e-08
7.44953e-08
7.58975e-08
7.78846e-08
8.03867e-08
8.26114e-08
8.42171e-08
8.52031e-08
8.65241e-08
8.90688e-08
9.30863e-08
9.8116e-08
1.01849e-07
1.04138e-07
1.06943e-07
1.11297e-07
1.1739e-07
1.2625e-07
1.3766e-07
1.49385e-07
1.60282e-07
1.70518e-07
1.82734e-07
2.01554e-07
2.27002e-07
2.30649e-07
2.31055e-07
2.3156e-07
2.31515e-07
2.31195e-07
2.31144e-07
2.31354e-07
2.31752e-07
2.32158e-07
2.32281e-07
2.32215e-07
2.32119e-07
2.3212e-07
2.32251e-07
2.3236e-07
2.32409e-07
2.32343e-07
2.32131e-07
2.22271e-07
2.04292e-07
1.87229e-07
1.74937e-07
1.66673e-07
1.59908e-07
1.52814e-07
1.4537e-07
1.38343e-07
1.32541e-07
1.28009e-07
1.23935e-07
1.19306e-07
1.145e-07
1.10824e-07
1.07793e-07
1.05258e-07
1.02714e-07
9.95663e-08
9.65891e-08
9.4025e-08
9.20707e-08
9.00631e-08
8.76065e-08
8.53664e-08
8.37129e-08
8.2161e-08
8.05506e-08
7.88879e-08
7.69661e-08
7.50589e-08
7.35151e-08
7.24346e-08
7.14775e-08
7.02685e-08
6.84383e-08
6.66123e-08
6.54835e-08
6.48357e-08
6.41168e-08
6.29503e-08
6.14137e-08
6.02479e-08
5.98534e-08
5.9397e-08
5.84104e-08
5.7246e-08
5.66275e-08
5.63865e-08
5.59821e-08
5.54669e-08
5.47283e-08
5.42114e-08
5.42328e-08
5.41833e-08
5.40167e-08
5.38087e-08
5.35476e-08
5.34525e-08
5.35509e-08
5.37116e-08
5.38654e-08
5.40321e-08
5.42184e-08
5.44764e-08
5.49085e-08
5.55278e-08
5.62678e-08
5.70579e-08
5.79389e-08
5.89402e-08
6.01241e-08
6.13861e-08
6.26998e-08
6.44279e-08
6.6264e-08
6.82333e-08
7.03067e-08
7.23097e-08
7.43578e-08
7.65516e-08
7.88709e-08
8.14008e-08
8.42911e-08
8.71739e-08
9.00046e-08
9.28985e-08
9.59146e-08
9.91178e-08
1.02513e-07
1.0613e-07
1.0999e-07
1.13993e-07
1.18051e-07
1.22118e-07
1.26346e-07
1.3128e-07
1.36777e-07
1.42277e-07
1.47895e-07
1.5387e-07
1.60287e-07
1.67101e-07
1.74526e-07
1.8239e-07
1.90707e-07
1.99436e-07
2.08377e-07
2.1048e-07
2.10766e-07
2.11201e-07
2.11677e-07
2.12093e-07
2.12454e-07
2.12799e-07
2.13139e-07
2.13461e-07
2.13822e-07
2.14376e-07
2.15107e-07
2.158e-07
2.16369e-07
2.16884e-07
2.17409e-07
2.17996e-07
2.18706e-07
2.19489e-07
2.20198e-07
2.20839e-07
2.21583e-07
2.2248e-07
2.23391e-07
2.24235e-07
2.25073e-07
2.25865e-07
2.26575e-07
2.27355e-07
2.28359e-07
2.2955e-07
2.3076e-07
2.31839e-07
2.32844e-07
2.33846e-07
2.3499e-07
2.3647e-07
2.38191e-07
2.39756e-07
2.41227e-07
2.42539e-07
2.43962e-07
2.45619e-07
2.47453e-07
2.49076e-07
2.50263e-07
2.51369e-07
2.52091e-07
2.53892e-07
2.56528e-07
1.74005e-07
2.50614e-07
9.60653e-08
1.09665e-07
7.5334e-08
5.94282e-08
3.06488e-08
3.55823e-08
7.75023e-08
7.80872e-08
7.00537e-08
7.36222e-08
1.67889e-07
1.7595e-07
2.78215e-07
2.80597e-07
2.83477e-07
2.49207e-07
1.55809e-07
1.99636e-07
1.14709e-07
1.04822e-07
5.9439e-08
5.14686e-08
3.43338e-08
2.33585e-08
2.1185e-08
2.87893e-08
4.33402e-08
5.41476e-08
4.55128e-08
6.33394e-08
6.31571e-08
7.64158e-08
7.74977e-08
1.04707e-07
1.05037e-07
7.32859e-08
1.54304e-07
5.19837e-08
3.96125e-08
4.38519e-08
8.09472e-08
2.50996e-08
3.49555e-08
1.37381e-08
1.26854e-08
3.28381e-08
2.76179e-08
1.22466e-08
2.63101e-08
3.31718e-08
4.85033e-08
4.07883e-08
3.8541e-08
3.83858e-08
4.05163e-08
4.19294e-08
4.18283e-08
4.12398e-08
4.06234e-08
3.98414e-08
3.91797e-08
3.87723e-08
3.88278e-08
3.88713e-08
3.86577e-08
3.82002e-08
3.77732e-08
3.74771e-08
3.71198e-08
3.66717e-08
3.63489e-08
3.61112e-08
3.59438e-08
3.57601e-08
3.5562e-08
3.54518e-08
3.5182e-08
3.472e-08
3.44602e-08
3.44149e-08
3.44064e-08
3.43633e-08
3.41349e-08
3.3771e-08
3.3405e-08
3.30743e-08
3.27901e-08
3.25687e-08
3.23609e-08
3.21037e-08
3.18566e-08
3.16972e-08
3.15802e-08
3.14522e-08
3.13387e-08
3.12473e-08
3.11651e-08
3.10725e-08
3.09483e-08
3.08304e-08
3.07231e-08
3.06103e-08
3.04644e-08
3.02917e-08
3.01283e-08
2.99779e-08
2.98608e-08
2.97683e-08
2.9651e-08
2.95122e-08
2.93759e-08
2.93597e-08
2.92195e-08
2.93283e-08
2.88717e-08
2.91702e-08
2.87153e-08
2.89496e-08
2.88718e-08
2.8608e-08
2.8842e-08
2.77705e-08
3.01983e-08
2.71823e-08
2.90586e-08
3.54732e-08
7.1603e-09
1.24175e-08
8.12899e-09
4.05795e-09
5.83553e-09
4.23632e-09
1.01692e-08
1.07564e-08
9.72456e-09
1.07767e-08
1.40404e-08
8.11872e-09
8.25327e-09
1.11985e-08
1.87977e-08
3.40003e-08
5.78026e-08
5.34044e-08
5.58368e-08
6.60577e-08
8.39756e-08
1.12794e-07
1.56221e-07
2.13323e-07
2.74446e-07
3.25797e-07
3.71808e-07
4.13759e-07
4.50771e-07
4.78374e-07
4.94416e-07
5.12161e-07
5.20276e-07
5.20563e-07
5.24579e-07
5.27844e-07
5.14219e-07
4.78427e-07
4.36045e-07
3.98658e-07
3.67487e-07
3.3262e-07
2.87658e-07
2.41313e-07
2.05316e-07
1.85343e-07
1.75481e-07
1.69734e-07
1.63259e-07
1.55376e-07
1.46866e-07
1.41089e-07
1.37806e-07
1.36042e-07
1.33965e-07
1.30574e-07
9.09875e-08
6.41625e-08
6.11969e-08
6.51361e-08
6.18753e-08
6.18517e-08
1.10626e-07
1.12913e-07
6.36813e-08
4.11032e-08
3.72265e-08
4.63913e-08
7.00469e-08
1.26661e-07
1.25899e-07
1.21127e-07
1.00076e-07
6.18979e-08
4.7908e-08
4.84092e-08
6.8937e-08
1.18103e-07
1.31876e-07
1.45464e-07
1.56313e-07
1.63269e-07
1.68899e-07
1.75465e-07
1.84391e-07
1.96309e-07
2.12158e-07
2.3107e-07
2.45723e-07
2.43042e-07
2.33109e-07
2.22275e-07
2.06127e-07
1.88545e-07
1.69567e-07
1.5135e-07
1.34256e-07
1.22648e-07
1.17855e-07
1.24613e-07
1.41074e-07
1.57555e-07
1.64344e-07
1.60431e-07
1.49103e-07
1.31048e-07
1.09948e-07
9.00363e-08
7.41255e-08
6.4047e-08
5.89016e-08
5.81883e-08
5.60744e-08
6.4958e-08
4.93357e-08
9.68426e-08
7.8932e-08
4.10342e-08
3.23028e-08
3.89192e-08
2.3974e-08
2.83211e-08
1.76369e-08
1.21366e-08
7.17223e-09
8.09863e-09
1.72236e-08
1.68352e-08
2.51259e-08
3.01415e-08
5.84681e-08
9.24652e-08
1.03966e-07
1.10691e-07
8.36907e-08
8.08527e-08
1.05839e-07
1.59969e-07
1.45417e-07
1.02859e-07
1.0021e-07
9.23586e-08
8.67887e-08
8.346e-08
7.73506e-08
7.1161e-08
6.73321e-08
6.31393e-08
6.04885e-08
6.13191e-08
6.15649e-08
5.75774e-08
5.24347e-08
4.90015e-08
4.84684e-08
4.92044e-08
4.86509e-08
4.6281e-08
4.33363e-08
4.10261e-08
4.02519e-08
4.04518e-08
4.02824e-08
3.93274e-08
3.81814e-08
3.65651e-08
3.50282e-08
3.45244e-08
3.44132e-08
3.39205e-08
3.30764e-08
3.2303e-08
3.13895e-08
3.0819e-08
3.00695e-08
2.94805e-08
2.93088e-08
2.84034e-08
2.75002e-08
2.68635e-08
2.62893e-08
2.62169e-08
2.58764e-08
2.52801e-08
2.46855e-08
2.42124e-08
2.38724e-08
2.3613e-08
2.36144e-08
2.38697e-08
2.41809e-08
2.41355e-08
2.36322e-08
2.32431e-08
2.3354e-08
2.40288e-08
2.49034e-08
2.53377e-08
2.53782e-08
2.5477e-08
2.56644e-08
2.62819e-08
2.69255e-08
2.73617e-08
2.78027e-08
2.81716e-08
2.8509e-08
2.87188e-08
2.90811e-08
2.99086e-08
3.08746e-08
3.14001e-08
3.15446e-08
3.19472e-08
3.25316e-08
3.32182e-08
3.41387e-08
3.50637e-08
3.58143e-08
3.65914e-08
3.74421e-08
3.84625e-08
3.9777e-08
4.09759e-08
4.17364e-08
4.27983e-08
4.45278e-08
4.65722e-08
4.8912e-08
5.08394e-08
5.26844e-08
5.475e-08
5.73525e-08
6.01621e-08
6.28165e-08
6.60032e-08
6.98405e-08
7.46914e-08
8.14542e-08
8.8764e-08
9.53244e-08
1.00239e-07
1.06171e-07
1.15814e-07
1.31012e-07
1.50791e-07
1.74138e-07
1.97033e-07
2.17091e-07
2.49391e-07
3.04438e-07
3.59633e-07
4.05911e-07
4.31932e-07
4.51082e-07
4.54458e-07
3.9531e-07
3.14059e-07
2.45108e-07
2.0602e-07
1.88767e-07
1.78992e-07
1.66085e-07
1.49725e-07
1.35275e-07
1.24765e-07
1.16401e-07
1.0957e-07
1.04184e-07
9.92373e-08
9.46678e-08
8.98268e-08
8.45976e-08
8.08646e-08
7.94337e-08
7.80824e-08
7.54507e-08
7.18468e-08
6.86962e-08
6.66761e-08
6.53606e-08
6.40221e-08
6.24131e-08
6.12675e-08
6.01145e-08
5.86003e-08
5.70628e-08
5.54201e-08
5.40574e-08
5.35238e-08
5.3196e-08
5.2534e-08
5.16253e-08
5.0314e-08
4.89673e-08
4.82169e-08
4.79926e-08
4.77681e-08
4.73554e-08
4.65766e-08
4.54626e-08
4.47784e-08
4.46629e-08
4.46024e-08
4.40338e-08
4.31756e-08
4.27709e-08
4.29618e-08
4.30628e-08
4.26326e-08
4.20062e-08
4.18557e-08
4.20728e-08
4.21416e-08
4.2031e-08
4.16042e-08
4.13573e-08
4.17691e-08
4.21099e-08
4.21979e-08
4.21745e-08
4.2068e-08
4.21598e-08
4.2492e-08
4.28694e-08
4.31741e-08
4.34421e-08
4.36554e-08
4.3852e-08
4.41908e-08
4.47463e-08
4.54459e-08
4.61671e-08
4.68642e-08
4.75623e-08
4.84409e-08
4.94733e-08
5.04683e-08
5.16731e-08
5.30316e-08
5.45619e-08
5.62186e-08
5.77818e-08
5.92976e-08
6.09604e-08
6.27862e-08
6.49958e-08
6.76393e-08
7.00793e-08
7.24182e-08
7.48408e-08
7.7319e-08
7.99634e-08
8.28264e-08
8.60093e-08
8.95269e-08
9.31185e-08
9.66492e-08
1.00057e-07
1.03703e-07
1.0828e-07
1.13226e-07
1.17972e-07
1.22841e-07
1.28067e-07
1.33991e-07
1.40514e-07
1.47222e-07
1.53881e-07
1.60555e-07
1.68667e-07
1.77927e-07
1.86504e-07
1.95066e-07
2.05615e-07
2.19724e-07
2.33931e-07
2.46669e-07
2.60212e-07
2.77421e-07
2.99195e-07
3.22576e-07
3.44507e-07
3.66163e-07
3.9251e-07
4.2071e-07
4.49488e-07
4.92348e-07
5.47441e-07
6.00557e-07
6.53067e-07
7.13805e-07
8.10548e-07
9.39164e-07
1.0722e-06
1.19697e-06
1.35464e-06
1.57193e-06
2.06079e-06
2.77171e-06
2.79315e-06
2.81788e-06
2.84597e-06
2.87533e-06
2.90351e-06
2.93051e-06
2.95687e-06
2.98358e-06
3.01544e-06
3.05343e-06
1.07579e-06
1.96721e-06
2.31512e-06
1.12536e-06
2.04244e-06
7.06547e-07
1.24467e-06
3.52019e-07
5.33661e-07
1.61334e-07
2.52111e-07
8.63496e-08
9.28448e-08
6.45609e-08
5.09785e-08
2.6221e-08
3.19579e-08
7.28447e-08
6.57283e-08
7.35697e-08
8.6668e-08
1.31786e-07
1.34432e-07
2.18159e-07
2.03692e-07
1.83873e-07
1.40479e-07
1.70816e-07
1.4391e-07
1.00829e-07
8.91689e-08
4.91269e-08
4.29219e-08
3.22957e-08
2.26881e-08
2.0513e-08
2.83544e-08
4.69213e-08
5.30454e-08
7.10525e-08
8.43012e-08
1.41419e-07
1.21803e-07
1.23977e-07
1.18779e-07
7.60165e-08
7.45667e-08
1.62995e-07
5.26883e-08
3.98383e-08
4.39558e-08
6.84118e-08
1.907e-08
2.7447e-08
1.06599e-08
1.03145e-08
2.7691e-08
3.38883e-08
1.48199e-08
2.02957e-08
1.14055e-08
1.42322e-08
4.0333e-08
6.21264e-08
1.07444e-07
1.11066e-07
7.73998e-08
5.64434e-08
4.71262e-08
4.33099e-08
4.15614e-08
3.93616e-08
3.73856e-08
3.63514e-08
3.56954e-08
3.56834e-08
3.57703e-08
3.51668e-08
3.42501e-08
3.38007e-08
3.35783e-08
3.29844e-08
3.22774e-08
3.18862e-08
3.17595e-08
3.14712e-08
3.0911e-08
3.04276e-08
3.0078e-08
3.00183e-08
2.98578e-08
2.94905e-08
2.92721e-08
2.9105e-08
2.87521e-08
2.83577e-08
2.81378e-08
2.80941e-08
2.81202e-08
2.8116e-08
2.79822e-08
2.78215e-08
2.75349e-08
2.72688e-08
2.71197e-08
2.69053e-08
2.66629e-08
2.65736e-08
2.65753e-08
2.6483e-08
2.62678e-08
2.60025e-08
2.57547e-08
2.55725e-08
2.54562e-08
2.53769e-08
2.5296e-08
2.51987e-08
2.50916e-08
2.49793e-08
2.48749e-08
2.47762e-08
2.46837e-08
2.46156e-08
2.45364e-08
2.45344e-08
2.43332e-08
2.43773e-08
2.39923e-08
2.43414e-08
2.39749e-08
2.40956e-08
2.40107e-08
2.38337e-08
2.40239e-08
2.30815e-08
2.51455e-08
2.27579e-08
2.46603e-08
3.03244e-08
6.0025e-09
1.05496e-08
9.48876e-09
2.9647e-09
4.96026e-09
4.46406e-09
1.67902e-08
7.88268e-08
3.11863e-08
1.26058e-08
1.18709e-08
1.34973e-08
1.91556e-08
3.5015e-08
8.01506e-08
9.92901e-08
9.85122e-08
9.81472e-08
1.05064e-07
1.19421e-07
1.42616e-07
1.74088e-07
2.0898e-07
2.4027e-07
2.63652e-07
2.80993e-07
2.97708e-07
3.171e-07
3.40989e-07
3.67407e-07
3.90421e-07
4.17002e-07
4.36409e-07
4.4538e-07
4.4142e-07
4.21869e-07
3.89802e-07
3.54219e-07
3.21597e-07
2.94488e-07
2.70653e-07
2.42817e-07
2.08378e-07
1.7713e-07
1.56944e-07
1.4519e-07
1.38083e-07
1.33905e-07
1.30706e-07
9.70261e-08
8.01579e-08
8.70459e-08
1.09598e-07
1.20531e-07
1.19336e-07
1.18469e-07
6.62773e-08
3.81071e-08
2.91891e-08
2.84754e-08
3.29867e-08
4.0133e-08
5.89813e-08
3.76292e-08
2.22958e-08
1.84952e-08
2.15279e-08
2.75664e-08
3.02358e-08
4.12248e-08
8.82507e-08
8.80529e-08
5.88199e-08
4.0413e-08
3.20811e-08
3.52511e-08
4.94692e-08
6.87137e-08
1.01475e-07
1.15863e-07
1.21297e-07
1.28261e-07
1.35531e-07
1.43279e-07
1.52575e-07
1.6416e-07
1.77537e-07
1.91902e-07
2.05818e-07
2.18655e-07
2.26769e-07
2.26492e-07
2.17238e-07
1.92049e-07
1.78527e-07
1.64386e-07
1.50772e-07
1.37195e-07
1.24107e-07
1.13425e-07
1.09544e-07
1.1237e-07
1.18013e-07
1.21458e-07
1.2044e-07
1.14626e-07
1.05866e-07
9.52224e-08
8.38731e-08
7.48156e-08
6.84834e-08
6.43313e-08
6.29018e-08
6.50054e-08
7.01147e-08
5.11368e-08
5.66106e-08
4.17386e-08
9.18186e-08
1.04363e-07
6.54133e-08
2.68052e-08
2.6867e-08
1.47954e-08
1.74284e-08
1.12261e-08
8.45831e-09
5.23935e-09
6.15261e-09
1.27927e-08
1.2709e-08
1.99586e-08
2.61119e-08
6.02263e-08
1.15534e-07
6.76455e-08
5.62321e-08
6.52724e-08
7.16469e-08
7.41361e-08
1.01547e-07
9.18488e-08
7.4234e-08
7.1776e-08
6.43724e-08
5.76536e-08
5.46973e-08
5.23159e-08
5.15996e-08
5.29323e-08
5.10175e-08
4.60407e-08
4.19522e-08
3.99257e-08
4.05612e-08
4.08646e-08
3.88542e-08
3.65765e-08
3.50263e-08
3.37538e-08
3.28964e-08
3.20902e-08
3.16446e-08
3.13083e-08
3.0178e-08
2.87228e-08
2.79825e-08
2.76835e-08
2.72418e-08
2.64389e-08
2.58431e-08
2.56515e-08
2.48459e-08
2.38792e-08
2.34177e-08
2.32005e-08
2.29818e-08
2.24639e-08
2.19345e-08
2.15868e-08
2.12072e-08
2.09236e-08
2.05139e-08
1.99627e-08
1.98276e-08
1.99957e-08
1.99806e-08
1.97624e-08
1.94654e-08
1.94615e-08
1.98224e-08
2.01773e-08
2.00352e-08
1.97995e-08
1.96366e-08
1.9751e-08
2.04397e-08
2.11935e-08
2.15836e-08
2.173e-08
2.16944e-08
2.20399e-08
2.29002e-08
2.37646e-08
2.42933e-08
2.43907e-08
2.45723e-08
2.50802e-08
2.58196e-08
2.68473e-08
2.76945e-08
2.78984e-08
2.80538e-08
2.8724e-08
2.96169e-08
3.04948e-08
3.16042e-08
3.25619e-08
3.30135e-08
3.35245e-08
3.44268e-08
3.59119e-08
3.76601e-08
3.90603e-08
3.96864e-08
4.02227e-08
4.15164e-08
4.34238e-08
4.61272e-08
4.87801e-08
5.10052e-08
5.28834e-08
5.44957e-08
5.6639e-08
5.98793e-08
6.35483e-08
6.71634e-08
7.18481e-08
7.82169e-08
8.41217e-08
8.89033e-08
9.33525e-08
1.00149e-07
1.10789e-07
1.25269e-07
1.4186e-07
1.59479e-07
1.74791e-07
1.8833e-07
2.13159e-07
2.47326e-07
2.70083e-07
2.86442e-07
3.14695e-07
3.44449e-07
3.44208e-07
3.03068e-07
2.48718e-07
2.0496e-07
1.8686e-07
1.80121e-07
1.67806e-07
1.52307e-07
1.37753e-07
1.24943e-07
1.16439e-07
1.11216e-07
1.05807e-07
1.0047e-07
9.52686e-08
9.02262e-08
8.49263e-08
8.03124e-08
7.7769e-08
7.66783e-08
7.50234e-08
7.25978e-08
6.96502e-08
6.64531e-08
6.40493e-08
6.23081e-08
6.11842e-08
6.0509e-08
5.98847e-08
5.86363e-08
5.64826e-08
5.4427e-08
5.30919e-08
5.2399e-08
5.21135e-08
5.1723e-08
5.09817e-08
4.97208e-08
4.82691e-08
4.7446e-08
4.70143e-08
4.66935e-08
4.62395e-08
4.57292e-08
4.51975e-08
4.44244e-08
4.38966e-08
4.36592e-08
4.32644e-08
4.25903e-08
4.2153e-08
4.21136e-08
4.21228e-08
4.19856e-08
4.16045e-08
4.12448e-08
4.11643e-08
4.126e-08
4.12754e-08
4.11052e-08
4.08634e-08
4.08014e-08
4.10976e-08
4.14192e-08
4.15095e-08
4.14207e-08
4.14403e-08
4.16943e-08
4.20131e-08
4.23814e-08
4.26978e-08
4.30339e-08
4.33749e-08
4.36428e-08
4.39322e-08
4.43512e-08
4.50986e-08
4.60008e-08
4.67399e-08
4.72479e-08
4.79016e-08
4.9008e-08
5.01642e-08
5.13484e-08
5.25776e-08
5.38636e-08
5.533e-08
5.67542e-08
5.8136e-08
5.97521e-08
6.1688e-08
6.39752e-08
6.64493e-08
6.87487e-08
7.10677e-08
7.3555e-08
7.60452e-08
7.84477e-08
8.09818e-08
8.41198e-08
8.78415e-08
9.15062e-08
9.49192e-08
9.8256e-08
1.0197e-07
1.06493e-07
1.11207e-07
1.15758e-07
1.20488e-07
1.25606e-07
1.31436e-07
1.37804e-07
1.44315e-07
1.5087e-07
1.57433e-07
1.65533e-07
1.75341e-07
1.84256e-07
1.91774e-07
2.00782e-07
2.14069e-07
2.28718e-07
2.42642e-07
2.56839e-07
2.7332e-07
2.93298e-07
3.138e-07
3.35145e-07
3.58182e-07
3.84468e-07
4.1087e-07
4.36844e-07
4.74953e-07
5.30798e-07
5.89034e-07
6.36535e-07
6.84363e-07
7.59993e-07
8.86794e-07
1.02117e-06
1.14814e-06
1.25025e-06
1.38734e-06
1.67997e-06
2.23131e-06
3.21258e-06
4.43031e-06
4.55159e-06
2.88132e-06
3.58931e-06
5.32468e-06
3.12646e-06
9.86042e-07
1.40984e-06
7.25664e-07
2.13446e-06
1.09976e-06
6.14523e-07
6.31396e-07
3.3637e-07
5.04536e-07
1.56442e-07
2.61512e-07
8.33295e-08
8.83205e-08
6.14121e-08
4.7099e-08
2.45308e-08
2.98896e-08
6.83814e-08
5.99895e-08
7.12155e-08
8.63939e-08
1.26932e-07
1.67539e-07
6.46644e-07
2.36303e-07
1.6378e-07
1.20215e-07
2.46174e-07
1.15984e-07
1.27323e-07
5.46484e-08
4.20351e-08
4.17164e-08
3.4771e-08
2.44146e-08
2.10271e-08
2.92097e-08
4.95787e-08
5.482e-08
8.67533e-08
9.77042e-08
2.51249e-07
1.41395e-06
1.03045e-06
1.7345e-07
7.09656e-08
2.51677e-07
4.26966e-08
4.14693e-08
5.40094e-08
6.73813e-08
5.67137e-08
1.89491e-08
2.86522e-08
9.70159e-09
9.21476e-09
3.26803e-08
3.78233e-08
1.47734e-08
2.02794e-08
1.1109e-08
1.24792e-08
3.48379e-08
5.46441e-08
6.56396e-08
6.47713e-08
5.52939e-08
4.97132e-08
5.37133e-08
5.7379e-08
5.25634e-08
4.63787e-08
4.27852e-08
4.11485e-08
3.94489e-08
3.78114e-08
3.68463e-08
3.62797e-08
3.61897e-08
3.57622e-08
3.46872e-08
3.37195e-08
3.33653e-08
3.32147e-08
3.27557e-08
3.2237e-08
3.19424e-08
3.17411e-08
3.13569e-08
3.0778e-08
3.0356e-08
3.01156e-08
3.00237e-08
2.99123e-08
2.96664e-08
2.93173e-08
2.89208e-08
2.84753e-08
2.80747e-08
2.78862e-08
2.78457e-08
2.78448e-08
2.77918e-08
2.76344e-08
2.74293e-08
2.71666e-08
2.70067e-08
2.69218e-08
2.67498e-08
2.65474e-08
2.64316e-08
2.63525e-08
2.62061e-08
2.59945e-08
2.57781e-08
2.55928e-08
2.54457e-08
2.53274e-08
2.52132e-08
2.50962e-08
2.49737e-08
2.48579e-08
2.47613e-08
2.46616e-08
2.4559e-08
2.44723e-08
2.44217e-08
2.43406e-08
2.43005e-08
2.40636e-08
2.41185e-08
2.37976e-08
2.41487e-08
2.37156e-08
2.38043e-08
2.37919e-08
2.36575e-08
2.3859e-08
2.29432e-08
2.5009e-08
2.26409e-08
2.44734e-08
2.99249e-08
5.94976e-09
1.0493e-08
9.64081e-09
2.49634e-09
4.95713e-09
5.23134e-09
1.57447e-08
1.95709e-08
1.28669e-08
8.61593e-09
9.88887e-09
1.75146e-08
3.47508e-08
6.21646e-08
1.17602e-07
1.33907e-07
1.36382e-07
1.38899e-07
1.45027e-07
1.56363e-07
1.70394e-07
1.85395e-07
1.98338e-07
2.08193e-07
2.16249e-07
2.25051e-07
2.36603e-07
2.51619e-07
2.68648e-07
2.84604e-07
2.98034e-07
3.11288e-07
3.19829e-07
3.19624e-07
3.10167e-07
2.93853e-07
2.74267e-07
2.55394e-07
2.38074e-07
2.21485e-07
2.02868e-07
1.82557e-07
1.63037e-07
1.3175e-07
1.07502e-07
1.18429e-07
1.37983e-07
1.36527e-07
1.27729e-07
5.55332e-08
3.94889e-08
4.26211e-08
6.25048e-08
1.38513e-07
1.37419e-07
1.3767e-07
5.41403e-08
2.70963e-08
1.92761e-08
1.77808e-08
2.14705e-08
2.86526e-08
3.12904e-08
2.22563e-08
1.65479e-08
1.6559e-08
1.95728e-08
2.21357e-08
2.0267e-08
1.84096e-08
2.62167e-08
4.02881e-08
3.81023e-08
2.99638e-08
2.44921e-08
2.63531e-08
3.46557e-08
4.70101e-08
5.79404e-08
6.39411e-08
9.19185e-08
1.25537e-07
1.26975e-07
1.30426e-07
1.36162e-07
1.4361e-07
1.52621e-07
1.63085e-07
1.74112e-07
1.84668e-07
1.93793e-07
2.00252e-07
2.02351e-07
1.99799e-07
1.90826e-07
1.76719e-07
1.54657e-07
1.42244e-07
1.32256e-07
1.23042e-07
1.13369e-07
1.06307e-07
1.03385e-07
1.03884e-07
1.04561e-07
1.02803e-07
9.91547e-08
9.49455e-08
9.01337e-08
8.49732e-08
8.16971e-08
7.87216e-08
7.65583e-08
7.60612e-08
7.71465e-08
8.02057e-08
8.62836e-08
8.91414e-08
5.53071e-08
6.4912e-08
5.19213e-08
1.85706e-07
8.56908e-08
1.10113e-07
3.03421e-08
2.85442e-08
1.41346e-08
1.61809e-08
1.01159e-08
7.76145e-09
4.90696e-09
5.73846e-09
1.1651e-08
1.14931e-08
1.71833e-08
1.98127e-08
9.32419e-08
7.2973e-08
1.10109e-07
5.88924e-08
5.96936e-08
5.89672e-08
6.0453e-08
7.87884e-08
6.73151e-08
5.37148e-08
5.12442e-08
4.99808e-08
5.02098e-08
5.12215e-08
4.77066e-08
4.24449e-08
3.93394e-08
3.89523e-08
3.95986e-08
3.85344e-08
3.63464e-08
3.42625e-08
3.29145e-08
3.25675e-08
3.19689e-08
3.05772e-08
2.96834e-08
2.93519e-08
2.82679e-08
2.7093e-08
2.69747e-08
2.66937e-08
2.58664e-08
2.50765e-08
2.45433e-08
2.41732e-08
2.373e-08
2.29652e-08
2.24967e-08
2.23096e-08
2.17905e-08
2.14384e-08
2.13683e-08
2.12395e-08
2.09388e-08
2.04035e-08
1.98099e-08
1.93861e-08
1.95887e-08
1.99153e-08
2.00204e-08
1.98723e-08
1.9301e-08
1.91046e-08
1.93587e-08
1.98125e-08
1.99896e-08
1.98875e-08
1.97004e-08
1.94487e-08
1.96254e-08
2.02755e-08
2.09903e-08
2.14388e-08
2.15023e-08
2.1525e-08
2.20018e-08
2.28178e-08
2.34079e-08
2.36099e-08
2.38747e-08
2.45211e-08
2.5458e-08
2.63555e-08
2.68009e-08
2.68784e-08
2.71942e-08
2.80744e-08
2.90366e-08
2.99431e-08
3.10558e-08
3.18318e-08
3.2206e-08
3.27098e-08
3.37402e-08
3.52614e-08
3.68518e-08
3.82367e-08
3.91397e-08
3.98038e-08
4.0983e-08
4.25542e-08
4.44753e-08
4.70996e-08
4.97762e-08
5.20021e-08
5.36749e-08
5.55869e-08
5.87659e-08
6.24985e-08
6.57529e-08
6.93335e-08
7.48731e-08
8.05645e-08
8.50676e-08
9.0381e-08
9.74167e-08
1.06611e-07
1.18651e-07
1.31809e-07
1.44022e-07
1.55372e-07
1.69773e-07
1.90339e-07
2.08522e-07