/*--------------------------------*- C++ -*----------------------------------*\
| =========                 |                                                 |
| \\      /  F ield         | OpenFOAM: The Open Source CFD Toolbox           |
|  \\    /   O peration     | Version:  v2006                                 |
|   \\  /    A nd           | Website:  www.openfoam.com                      |
|    \\/     M anipulation  |                                                 |
\*---------------------------------------------------------------------------*/
FoamFile
{
    version     2.0;
    format      ascii;
    class       volScalarField;
    location    "8.3";
    object      p;
}
// * * * * * * * * * * * * * * * * * * * * * * * * * * * * * * * * * * * * * //

dimensions      [1 -1 -2 0 0 0 0];


internalField   nonuniform List<scalar> 
33000
(
7450.88
7433.09
7425.95
7417.35
7409.21
7401.22
7393.08
7384.72
7376.4
7368.25
7360.3
7352.52
7344.93
7337.66
7330.95
7324.93
7319.52
7314.5
7309.36
7303.89
7298.37
7293.07
7287.93
7282.92
7278.06
7273.39
7268.95
7264.81
7261.03
7257.71
7254.78
7252.18
7249.82
7247.57
7245.31
7243.08
7240.97
7239.06
7237.34
7235.78
7234.44
7233.34
7232.51
7231.87
7231.45
7231.25
7231.27
7231.52
7231.96
7232.62
7233.47
7234.51
7235.76
7237.19
7238.83
7240.66
7242.66
7244.8
7247.11
7249.56
7252.14
7254.88
7257.76
7260.78
7263.93
7267.22
7270.62
7274.13
7277.76
7281.5
7285.34
7289.27
7293.25
7297.24
7301.22
7305.15
7308.87
7311.36
7312.14
7318.04
7324.6
7328.71
7333.68
7339.09
7344.04
7349.57
7355.64
7361.37
7367.23
7372.93
7378.79
7384.53
7390.36
7396.13
7401.62
7407.2
7411.78
7417.28
7419.51
7425.31
7435.83
7442.73
7451.01
7459.49
7467.43
7476.19
7485.44
7494.46
7503.71
7512.71
7521.89
7530.91
7539.9
7548.99
7557.43
7566.41
7572.92
7582.15
7594.79
7604.81
7615.62
7626.66
7637.4
7648.7
7660.4
7671.89
7683.59
7695.33
7707.07
7718.87
7730.71
7742.5
7754.3
7766.06
7777.79
7789.46
7801.05
7812.58
7824.01
7835.37
7846.62
7857.78
7868.81
7879.72
7890.51
7901.17
7911.7
7922.06
7932.25
7942.27
7952.11
7961.79
7971.29
7980.57
7989.65
7998.51
8007.15
8015.59
8023.8
8031.79
8039.53
8047.05
8054.33
8061.37
8068.19
8074.76
8081.08
8087.16
8093.02
8098.65
8104.04
8109.19
8114.11
8118.81
8123.31
8127.58
8131.64
8135.48
8139.11
8142.55
8145.81
8148.9
8151.81
8154.56
8157.13
8159.56
8161.84
8164
8166.04
8167.96
8169.78
8171.51
8173.16
8174.73
8176.21
8177.6
8178.88
8180.05
8181.1
8182.03
8182.83
8183.51
8184.06
8184.46
8184.71
8184.82
8184.78
8184.6
8184.25
8183.74
8183.08
8182.27
8181.29
8180.16
8178.85
8177.39
8175.75
8173.97
8172.02
8169.93
8167.67
8165.25
8162.67
8159.93
8157.05
8154.03
8150.86
8147.55
8144.1
8140.51
8136.78
8132.93
8128.96
8124.87
8120.66
8116.34
8111.9
8107.36
8102.73
8097.99
8093.17
8088.27
8083.28
8078.23
8073.09
8067.9
8062.63
8057.32
8051.96
8046.55
8041.1
8035.62
8030.1
8024.55
8018.99
8013.41
8007.82
8002.22
7996.62
7991.02
7985.43
7979.85
7974.28
7968.74
7963.21
7957.71
7952.25
7946.82
7941.43
7936.09
7930.78
7925.53
7920.33
7915.18
7910.1
7905.08
7900.12
7895.23
7890.4
7885.65
7880.97
7876.36
7871.83
7867.37
7863
7858.71
7854.49
7850.36
7846.31
7842.35
7838.47
7834.68
7830.98
7827.36
7823.83
7820.38
7817.01
7813.73
7810.54
7807.43
7804.4
7801.46
7798.59
7795.81
7793.11
7790.5
7787.95
7785.49
7783.1
7780.79
7778.54
7776.37
7774.26
7772.22
7770.24
7768.33
7766.48
7764.69
7762.96
7761.28
7759.65
7758.08
7756.56
7755.08
7753.65
7752.26
7750.91
7749.61
7748.34
7747.1
7745.9
7744.73
7743.59
7742.48
7741.39
7740.32
7739.28
7738.26
7737.27
7736.3
7735.35
7734.43
7733.53
7732.66
7731.82
7731
7730.21
7729.45
7728.72
7728.01
7727.34
7726.69
7726.06
7725.47
7724.9
7724.36
7723.85
7723.37
7722.91
7722.47
7722.06
7721.68
7721.32
7720.98
7720.67
7720.38
7720.11
7719.86
7719.63
7719.43
7719.24
7719.07
7718.92
7718.78
7718.67
7718.57
7718.48
7718.41
7718.36
7718.31
7718.28
7718.27
7718.26
7718.27
7718.28
7718.31
7718.34
7718.39
7718.44
7718.5
7718.56
7718.64
7718.72
7718.8
7718.89
7718.98
7719.08
7719.18
7719.28
7719.38
7719.49
7719.59
7719.7
7719.81
7719.91
7720.02
7720.13
7720.24
7720.34
7720.45
7720.55
7720.66
7720.77
7720.87
7720.97
7721.08
7721.18
7721.28
7721.38
7721.48
7721.57
7721.68
7721.76
7721.88
7721.97
7722.02
7722.11
7722.22
7722.23
7722.49
7722.52
7722.35
7722.39
7722.37
7722.44
7722.49
7722.59
7722.7
7722.84
7723.01
7723.19
7723.41
7723.62
7723.85
7724.11
7724.45
7724.68
7725.17
7725.45
7725.53
7725.89
7726.14
7726.59
7726.97
7727.5
7728
7728.61
7729.21
7729.89
7730.58
7731.35
7732.1
7733
7733.82
7734.67
7735.57
7736.54
7737.3
7738.85
7739.6
7740.27
7741.09
7741.97
7742.93
7743.94
7745.01
7746.11
7747.26
7748.46
7749.69
7750.96
7752.26
7753.61
7754.98
7756.39
7757.83
7759.3
7760.81
7762.34
7763.91
7765.5
7767.13
7768.78
7770.46
7772.16
7773.89
7775.65
7777.43
7779.24
7781.07
7782.92
7784.8
7786.7
7788.62
7790.56
7792.53
7794.52
7796.52
7798.55
7800.6
7802.66
7804.75
7806.85
7808.97
7811.11
7813.26
7815.44
7817.63
7819.83
7822.05
7824.29
7826.54
7828.81
7831.09
7833.39
7835.7
7838.02
7840.36
7842.7
7845.07
7847.44
7849.83
7852.23
7854.63
7857.06
7859.49
7861.93
7864.38
7866.85
7869.32
7871.8
7874.3
7876.8
7879.31
7881.84
7884.37
7886.91
7889.47
7892.01
7895.52
7252.8
7235.3
7228.7
7219.81
7211.71
7203.48
7195.28
7187.03
7178.86
7170.87
7162.91
7154.99
7147.11
7139.54
7132.57
7126.59
7121.68
7117.1
7112.12
7106.85
7101.56
7096.34
7091.18
7086.1
7081.12
7076.3
7071.7
7067.44
7063.67
7060.41
7057.54
7054.99
7052.67
7050.47
7048.28
7046.06
7043.99
7042.15
7040.49
7039
7037.68
7036.58
7035.76
7035.13
7034.72
7034.57
7034.6
7034.84
7035.28
7035.96
7036.84
7037.88
7039.15
7040.58
7042.21
7044.05
7046.04
7048.19
7050.5
7052.97
7055.57
7058.33
7061.26
7064.32
7067.52
7070.83
7074.25
7077.76
7081.36
7085.09
7088.93
7092.86
7096.85
7100.86
7104.85
7108.78
7112.51
7116
7120.02
7124.26
7126.87
7127.69
7135.15
7143.64
7149.12
7154.06
7159.71
7165.03
7170.48
7176.39
7182.54
7188.55
7194.33
7200.46
7206.1
7212.09
7217.67
7223.36
7228.81
7234.04
7240.5
7243.15
7250.71
7263.11
7271.77
7281.15
7289.7
7298.36
7306.81
7315.75
7325.36
7334.64
7343.89
7353.1
7362.05
7371.17
7380.07
7389.05
7399.06
7405.97
7416.54
7430.41
7441.51
7452.94
7464.24
7475.34
7486.96
7499.03
7510.81
7522.68
7534.48
7546.25
7558.07
7569.9
7581.64
7593.34
7604.92
7616.45
7627.87
7639.24
7650.51
7661.68
7672.73
7683.66
7694.47
7705.14
7715.67
7726.04
7736.23
7746.27
7756.13
7765.82
7775.31
7784.59
7793.67
7802.54
7811.21
7819.65
7827.86
7835.84
7843.58
7851.1
7858.39
7865.43
7872.25
7878.82
7885.14
7891.23
7897.08
7902.7
7908.09
7913.24
7918.17
7922.87
7927.35
7931.62
7935.67
7939.52
7943.15
7946.59
7949.84
7952.91
7955.82
7958.56
7961.14
7963.56
7965.84
7967.99
7970.03
7971.95
7973.78
7975.51
7977.16
7978.73
7980.21
7981.59
7982.87
7984.05
7985.1
7986.03
7986.84
7987.52
7988.06
7988.46
7988.72
7988.83
7988.8
7988.6
7988.26
7987.75
7987.09
7986.28
7985.3
7984.16
7982.86
7981.39
7979.76
7977.98
7976.03
7973.93
7971.66
7969.24
7966.66
7963.93
7961.05
7958.02
7954.85
7951.53
7948.08
7944.48
7940.76
7936.91
7932.93
7928.83
7924.62
7920.29
7915.85
7911.3
7906.66
7901.93
7897.1
7892.2
7887.21
7882.14
7877
7871.8
7866.54
7861.22
7855.86
7850.45
7844.99
7839.5
7833.98
7828.43
7822.86
7817.28
7811.68
7806.07
7800.47
7794.86
7789.27
7783.68
7778.11
7772.56
7767.02
7761.52
7756.05
7750.62
7745.23
7739.87
7734.57
7729.31
7724.11
7718.96
7713.87
7708.84
7703.88
7698.98
7694.15
7689.4
7684.71
7680.1
7675.56
7671.11
7666.73
7662.44
7658.22
7654.09
7650.04
7646.08
7642.2
7638.41
7634.7
7631.08
7627.54
7624.09
7620.73
7617.45
7614.25
7611.14
7608.12
7605.17
7602.31
7599.53
7596.83
7594.21
7591.67
7589.21
7586.82
7584.5
7582.26
7580.09
7577.98
7575.94
7573.97
7572.06
7570.21
7568.42
7566.68
7565.01
7563.38
7561.81
7560.29
7558.81
7557.38
7555.99
7554.65
7553.34
7552.07
7550.84
7549.64
7548.47
7547.33
7546.22
7545.13
7544.07
7543.02
7542.01
7541.01
7540.04
7539.09
7538.17
7537.27
7536.4
7535.56
7534.75
7533.96
7533.2
7532.47
7531.76
7531.08
7530.43
7529.81
7529.22
7528.65
7528.12
7527.6
7527.12
7526.66
7526.23
7525.82
7525.44
7525.08
7524.74
7524.43
7524.14
7523.87
7523.62
7523.4
7523.19
7523
7522.84
7522.69
7522.55
7522.44
7522.34
7522.26
7522.19
7522.13
7522.09
7522.06
7522.05
7522.04
7522.05
7522.06
7522.09
7522.13
7522.17
7522.22
7522.29
7522.35
7522.43
7522.51
7522.59
7522.68
7522.77
7522.87
7522.97
7523.07
7523.18
7523.28
7523.39
7523.5
7523.61
7523.72
7523.83
7523.93
7524.04
7524.15
7524.25
7524.36
7524.46
7524.57
7524.67
7524.78
7524.88
7524.98
7525.07
7525.19
7525.28
7525.4
7525.49
7525.54
7525.62
7525.74
7525.8
7526.09
7526.17
7525.99
7526.06
7526.03
7526.04
7526.06
7526.09
7526.16
7526.23
7526.35
7526.45
7526.61
7526.75
7526.93
7527.11
7527.41
7527.61
7528.05
7528.27
7528.34
7528.62
7528.85
7529.13
7529.47
7529.81
7530.24
7530.67
7531.17
7531.7
7532.27
7532.92
7533.55
7534.34
7535.05
7535.82
7536.6
7537.49
7538.26
7539.77
7540.58
7541.19
7541.99
7542.81
7543.69
7544.6
7545.56
7546.56
7547.6
7548.68
7549.8
7550.96
7552.15
7553.39
7554.67
7555.97
7557.32
7558.7
7560.11
7561.55
7563.03
7564.53
7566.07
7567.64
7569.23
7570.86
7572.51
7574.19
7575.89
7577.63
7579.38
7581.17
7582.98
7584.81
7586.66
7588.54
7590.44
7592.36
7594.31
7596.28
7598.26
7600.27
7602.3
7604.34
7606.41
7608.5
7610.6
7612.72
7614.86
7617.02
7619.19
7621.38
7623.59
7625.81
7628.05
7630.3
7632.57
7634.85
7637.15
7639.46
7641.78
7644.12
7646.47
7648.83
7651.21
7653.59
7655.99
7658.4
7660.82
7663.25
7665.7
7668.15
7670.61
7673.09
7675.57
7678.07
7680.57
7683.08
7685.6
7688.14
7690.68
7693.24
7695.79
7699.31
7053.68
7037.19
7031.57
7022.2
7014.05
7005.78
6997.56
6989.38
6981.32
6973.4
6965.57
6957.71
6949.78
6942
6934.87
6928.74
6923.63
6919.05
6914.39
6909.59
6904.54
6899.42
6894.3
6889.23
6884.2
6879.27
6874.53
6870.11
6866.24
6862.86
6859.81
6857.11
6854.75
6852.51
6850.36
6848.28
6846.3
6844.52
6842.95
6841.54
6840.27
6839.24
6838.45
6837.85
6837.46
6837.33
6837.39
6837.63
6838.12
6838.82
6839.7
6840.76
6842.05
6843.52
6845.16
6847
6849.01
6851.19
6853.53
6856.02
6858.68
6861.5
6864.46
6867.58
6870.81
6874.13
6877.59
6881.14
6884.75
6888.48
6892.34
6896.28
6900.29
6904.34
6908.39
6912.4
6916.36
6920.4
6924.54
6928.87
6933.06
6937.75
6942.45
6945.39
6946.32
6953.99
6963.25
6969.49
6975.5
6980.48
6986.74
6992.03
6998.42
7004.57
7010.82
7016.7
7022.8
7028.84
7034.86
7041.28
7048.08
7054.75
7061.05
7068.03
7071.36
7079.49
7092.58
7102.13
7112.14
7120.7
7129.8
7138.23
7147.35
7156.99
7166.25
7175.65
7185.01
7194.57
7204.79
7214.85
7224.56
7234.95
7242.42
7253.45
7267.96
7279.49
7291.31
7302.89
7314.26
7326.06
7338.27
7350.12
7362.03
7373.8
7385.52
7397.13
7408.73
7420.31
7431.76
7443.16
7454.45
7465.65
7476.74
7487.71
7498.54
7509.23
7519.77
7530.16
7540.38
7550.44
7560.33
7570.03
7579.53
7588.82
7597.92
7606.8
7615.48
7623.94
7632.16
7640.14
7647.89
7655.41
7662.7
7669.75
7676.57
7683.14
7689.46
7695.55
7701.4
7707.01
7712.4
7717.55
7722.47
7727.16
7731.63
7735.89
7739.94
7743.78
7747.42
7750.85
7754.09
7757.16
7760.05
7762.78
7765.36
7767.78
7770.06
7772.21
7774.24
7776.16
7777.99
7779.73
7781.38
7782.94
7784.41
7785.79
7787.07
7788.24
7789.3
7790.24
7791.04
7791.72
7792.26
7792.67
7792.93
7793.05
7793.01
7792.82
7792.47
7791.97
7791.31
7790.5
7789.52
7788.38
7787.07
7785.6
7783.98
7782.19
7780.24
7778.13
7775.86
7773.43
7770.85
7768.12
7765.23
7762.19
7759.01
7755.68
7752.22
7748.62
7744.89
7741.03
7737.05
7732.94
7728.72
7724.38
7719.93
7715.38
7710.73
7705.99
7701.16
7696.25
7691.25
7686.17
7681.02
7675.81
7670.55
7665.23
7659.85
7654.43
7648.96
7643.46
7637.93
7632.38
7626.8
7621.2
7615.59
7609.97
7604.36
7598.74
7593.14
7587.54
7581.95
7576.39
7570.85
7565.34
7559.86
7554.41
7549.01
7543.65
7538.33
7533.06
7527.85
7522.7
7517.6
7512.56
7507.59
7502.68
7497.85
7493.08
7488.39
7483.78
7479.24
7474.78
7470.4
7466.09
7461.88
7457.74
7453.69
7449.73
7445.84
7442.04
7438.33
7434.71
7431.17
7427.72
7424.36
7421.08
7417.88
7414.77
7411.75
7408.81
7405.95
7403.17
7400.47
7397.85
7395.31
7392.84
7390.45
7388.14
7385.9
7383.72
7381.62
7379.58
7377.61
7375.7
7373.85
7372.07
7370.33
7368.66
7367.04
7365.47
7363.95
7362.47
7361.04
7359.66
7358.32
7357.01
7355.74
7354.51
7353.31
7352.14
7351
7349.89
7348.8
7347.74
7346.7
7345.69
7344.69
7343.72
7342.78
7341.86
7340.96
7340.09
7339.25
7338.44
7337.65
7336.89
7336.16
7335.46
7334.78
7334.13
7333.51
7332.92
7332.36
7331.82
7331.31
7330.83
7330.37
7329.94
7329.53
7329.15
7328.8
7328.46
7328.15
7327.86
7327.6
7327.35
7327.13
7326.92
7326.74
7326.57
7326.43
7326.3
7326.18
7326.08
7326
7325.94
7325.88
7325.84
7325.82
7325.8
7325.8
7325.81
7325.83
7325.86
7325.89
7325.94
7326
7326.06
7326.13
7326.2
7326.29
7326.37
7326.46
7326.56
7326.66
7326.76
7326.87
7326.97
7327.08
7327.19
7327.3
7327.41
7327.51
7327.63
7327.73
7327.84
7327.94
7328.06
7328.16
7328.28
7328.37
7328.48
7328.57
7328.69
7328.78
7328.92
7329
7329.06
7329.14
7329.27
7329.33
7329.64
7329.72
7329.54
7329.6
7329.59
7329.64
7329.68
7329.72
7329.72
7329.79
7329.81
7329.89
7329.95
7330.01
7330.14
7330.24
7330.49
7330.62
7330.99
7331.15
7331.16
7331.37
7331.54
7331.79
7332.05
7332.35
7332.61
7333
7333.29
7333.79
7334.13
7334.75
7335.2
7335.93
7336.49
7337.18
7337.81
7338.58
7339.27
7340.69
7341.45
7342.04
7342.79
7343.61
7344.46
7345.39
7346.31
7347.2
7348.14
7349.1
7350.11
7351.16
7352.25
7353.38
7354.55
7355.76
7357
7358.28
7359.59
7360.94
7362.32
7363.74
7365.19
7366.67
7368.18
7369.72
7371.29
7372.89
7374.51
7376.17
7377.85
7379.56
7381.29
7383.05
7384.84
7386.65
7388.48
7390.34
7392.22
7394.12
7396.05
7398
7399.96
7401.95
7403.96
7405.99
7408.04
7410.11
7412.2
7414.3
7416.42
7418.57
7420.72
7422.9
7425.09
7427.3
7429.52
7431.76
7434.02
7436.29
7438.57
7440.87
7443.18
7445.51
7447.85
7450.2
7452.56
7454.94
7457.33
7459.73
7462.14
7464.56
7466.99
7469.44
7471.89
7474.36
7476.83
7479.32
7481.81
7484.32
7486.83
7489.35
7491.89
7494.43
7496.99
7499.54
7503.06
6855.46
6839.08
6834.01
6824.48
6816.3
6808.02
6799.8
6791.67
6783.68
6775.86
6768.19
6760.55
6752.96
6745.58
6738.59
6732.38
6726.84
6721.65
6716.57
6711.54
6706.47
6701.39
6696.3
6691.26
6686.35
6681.57
6676.97
6672.69
6668.85
6665.43
6662.3
6659.42
6656.85
6654.45
6652.1
6650
6648.1
6646.39
6644.86
6643.48
6642.27
6641.33
6640.57
6640
6639.67
6639.54
6639.64
6639.91
6640.45
6641.17
6642.07
6643.19
6644.47
6645.98
6647.67
6649.53
6651.57
6653.79
6656.18
6658.71
6661.42
6664.3
6667.3
6670.47
6673.72
6677.08
6680.59
6684.21
6687.91
6691.69
6695.61
6699.6
6703.66
6707.8
6711.98
6716.16
6720.39
6724.64
6728.91
6733.31
6737.8
6742.47
6747.41
6752.09
6757.37
6762.82
6767.83
6771.45
6773.09
6782.15
6791.17
6796.72
6802.86
6809.27
6814.92
6821.77
6828.19
6834.9
6841.25
6847.9
6854.55
6861.47
6868.75
6876.61
6884.25
6892.3
6898.65
6906.65
6910.17
6919.05
6932.64
6942.39
6952.14
6961.46
6970.45
6979.86
6989.87
6999.63
7009.64
7019.57
7029.89
7040.75
7051.46
7061.65
7072.48
7080.31
7091.67
7106.57
7118.36
7130.35
7142.07
7153.51
7165.42
7177.6
7189.44
7201.25
7212.8
7224.38
7235.77
7247.17
7258.5
7269.73
7280.86
7291.87
7302.73
7313.45
7324.03
7334.44
7344.7
7354.8
7364.71
7374.44
7383.96
7393.27
7402.39
7411.3
7419.99
7428.46
7436.7
7444.7
7452.46
7459.99
7467.28
7474.34
7481.15
7487.72
7494.05
7500.13
7505.98
7511.59
7516.97
7522.12
7527.03
7531.71
7536.17
7540.42
7544.46
7548.29
7551.92
7555.35
7558.59
7561.65
7564.53
7567.26
7569.82
7572.24
7574.53
7576.68
7578.71
7580.63
7582.45
7584.19
7585.83
7587.39
7588.85
7590.22
7591.49
7592.66
7593.71
7594.65
7595.46
7596.14
7596.68
7597.09
7597.35
7597.47
7597.43
7597.24
7596.89
7596.4
7595.74
7594.93
7593.94
7592.8
7591.49
7590.02
7588.39
7586.6
7584.65
7582.53
7580.25
7577.81
7575.22
7572.49
7569.59
7566.55
7563.35
7560.01
7556.54
7552.93
7549.19
7545.32
7541.32
7537.2
7532.96
7528.61
7524.15
7519.59
7514.93
7510.18
7505.34
7500.41
7495.4
7490.31
7485.15
7479.93
7474.66
7469.32
7463.93
7458.49
7453.01
7447.49
7441.95
7436.38
7430.79
7425.18
7419.55
7413.92
7408.29
7402.66
7397.03
7391.42
7385.81
7380.23
7374.68
7369.15
7363.66
7358.2
7352.78
7347.4
7342.07
7336.79
7331.57
7326.4
7321.29
7316.24
7311.26
7306.34
7301.49
7296.72
7292.02
7287.4
7282.85
7278.38
7273.99
7269.68
7265.46
7261.32
7257.26
7253.29
7249.4
7245.6
7241.89
7238.26
7234.72
7231.27
7227.9
7224.62
7221.43
7218.32
7215.3
7212.35
7209.49
7206.72
7204.02
7201.4
7198.86
7196.4
7194.01
7191.69
7189.45
7187.28
7185.18
7183.14
7181.17
7179.27
7177.42
7175.64
7173.91
7172.24
7170.62
7169.05
7167.53
7166.06
7164.63
7163.25
7161.91
7160.6
7159.34
7158.11
7156.91
7155.74
7154.6
7153.49
7152.41
7151.35
7150.31
7149.3
7148.31
7147.34
7146.4
7145.48
7144.59
7143.72
7142.88
7142.07
7141.28
7140.53
7139.8
7139.1
7138.42
7137.78
7137.16
7136.57
7136.01
7135.48
7134.97
7134.49
7134.03
7133.61
7133.2
7132.82
7132.47
7132.14
7131.83
7131.55
7131.28
7131.04
7130.82
7130.62
7130.44
7130.28
7130.13
7130
7129.89
7129.8
7129.72
7129.66
7129.61
7129.57
7129.55
7129.54
7129.54
7129.55
7129.57
7129.6
7129.65
7129.7
7129.75
7129.82
7129.89
7129.97
7130.06
7130.15
7130.24
7130.34
7130.44
7130.55
7130.66
7130.77
7130.88
7130.99
7131.1
7131.21
7131.32
7131.44
7131.55
7131.66
7131.76
7131.85
7131.97
7132.05
7132.19
7132.27
7132.42
7132.5
7132.57
7132.65
7132.78
7132.84
7133.16
7133.24
7133.07
7133.13
7133.12
7133.18
7133.22
7133.27
7133.27
7133.31
7133.32
7133.37
7133.4
7133.41
7133.5
7133.56
7133.73
7133.79
7134.09
7134.18
7134.13
7134.27
7134.4
7134.57
7134.79
7134.99
7135.23
7135.47
7135.77
7136.06
7136.44
7136.79
7137.29
7137.74
7138.22
7138.74
7139.27
7139.88
7140.46
7141.75
7142.44
7142.98
7143.68
7144.44
7145.24
7146.12
7146.99
7147.86
7148.74
7149.65
7150.58
7151.54
7152.53
7153.57
7154.63
7155.74
7156.88
7158.06
7159.27
7160.52
7161.81
7163.13
7164.48
7165.87
7167.29
7168.75
7170.23
7171.74
7173.29
7174.86
7176.47
7178.1
7179.76
7181.44
7183.16
7184.9
7186.66
7188.45
7190.26
7192.1
7193.96
7195.84
7197.75
7199.68
7201.63
7203.6
7205.59
7207.6
7209.63
7211.69
7213.76
7215.85
7217.95
7220.08
7222.22
7224.38
7226.56
7228.76
7230.97
7233.19
7235.44
7237.69
7239.97
7242.25
7244.55
7246.87
7249.2
7251.54
7253.89
7256.26
7258.64
7261.03
7263.43
7265.84
7268.26
7270.7
7273.14
7275.6
7278.07
7280.54
7283.03
7285.52
7288.03
7290.54
7293.07
7295.6
7298.14
7300.7
7303.25
7306.78
6657.57
6641.09
6636.25
6626.67
6618.37
6610.06
6601.82
6593.72
6585.83
6578.19
6570.62
6563.12
6555.71
6548.51
6541.64
6535.25
6529.29
6523.69
6518.28
6512.97
6507.76
6502.63
6497.61
6492.68
6487.87
6483.22
6478.76
6474.58
6470.72
6467.21
6463.98
6461.01
6458.27
6455.74
6453.41
6451.31
6449.43
6447.74
6446.23
6444.89
6443.73
6442.83
6442.1
6441.59
6441.28
6441.19
6441.34
6441.66
6442.23
6442.98
6443.93
6445.08
6446.42
6447.97
6449.68
6451.58
6453.67
6455.95
6458.38
6460.98
6463.74
6466.67
6469.75
6472.94
6476.26
6479.71
6483.29
6487.01
6490.81
6494.68
6498.65
6502.74
6506.89
6511.13
6515.43
6519.8
6524.21
6528.68
6533.21
6537.79
6542.49
6547.3
6552.17
6557.11
6562.38
6567.98
6573.42
6578.81
6584.42
6589.91
6593.76
6595.92
6605.49
6614.82
6620.46
6627.08
6633.67
6639.79
6647.1
6654.05
6661.39
6668.43
6675.71
6682.92
6690.42
6698.22
6706.83
6714.71
6723.1
6730.44
6738.37
6742.52
6751.38
6765.24
6775.29
6785.24
6794.97
6804.41
6814.43
6825.08
6835.44
6845.94
6856.38
6867.13
6878.5
6889.58
6900.15
6911.31
6919.39
6930.99
6946.18
6958.07
6970.17
6981.78
6993.37
7004.65
7016.28
7028.21
7039.75
7051.24
7062.6
7073.83
7085
7096.1
7107.01
7117.79
7128.41
7138.87
7149.17
7159.32
7169.27
7179.03
7188.59
7197.95
7207.1
7216.03
7224.75
7233.23
7241.49
7249.51
7257.29
7264.83
7272.13
7279.19
7286
7292.58
7298.91
7305
7310.84
7316.45
7321.82
7326.96
7331.87
7336.54
7340.99
7345.23
7349.26
7353.08
7356.7
7360.12
7363.36
7366.41
7369.29
7372.01
7374.58
7377
7379.28
7381.44
7383.47
7385.38
7387.2
7388.93
7390.56
7392.11
7393.56
7394.92
7396.18
7397.33
7398.38
7399.31
7400.11
7400.79
7401.33
7401.74
7402
7402.11
7402.07
7401.88
7401.54
7401.04
7400.39
7399.57
7398.58
7397.43
7396.12
7394.64
7393.01
7391.21
7389.25
7387.12
7384.83
7382.39
7379.79
7377.04
7374.14
7371.08
7367.88
7364.52
7361.03
7357.41
7353.65
7349.77
7345.75
7341.62
7337.36
7333
7328.52
7323.95
7319.28
7314.51
7309.65
7304.7
7299.67
7294.56
7289.39
7284.16
7278.86
7273.51
7268.1
7262.64
7257.14
7251.61
7246.04
7240.45
7234.84
7229.2
7223.56
7217.91
7212.25
7206.6
7200.95
7195.31
7189.69
7184.09
7178.51
7172.97
7167.45
7161.97
7156.53
7151.13
7145.78
7140.49
7135.24
7130.06
7124.93
7119.87
7114.87
7109.94
7105.08
7100.29
7095.58
7090.95
7086.39
7081.91
7077.51
7073.19
7068.96
7064.81
7060.75
7056.78
7052.88
7049.08
7045.36
7041.73
7038.18
7034.73
7031.36
7028.08
7024.89
7021.78
7018.75
7015.81
7012.95
7010.18
7007.48
7004.86
7002.32
6999.86
6997.47
6995.16
6992.92
6990.75
6988.66
6986.62
6984.66
6982.75
6980.91
6979.13
6977.4
6975.73
6974.12
6972.55
6971.04
6969.57
6968.14
6966.76
6965.42
6964.12
6962.86
6961.63
6960.43
6959.27
6958.13
6957.02
6955.94
6954.88
6953.85
6952.84
6951.85
6950.89
6949.95
6949.04
6948.15
6947.29
6946.45
6945.64
6944.86
6944.11
6943.38
6942.68
6942.01
6941.37
6940.76
6940.17
6939.61
6939.08
6938.58
6938.1
6937.65
6937.23
6936.83
6936.45
6936.1
6935.78
6935.47
6935.19
6934.93
6934.7
6934.48
6934.28
6934.11
6933.95
6933.81
6933.68
6933.58
6933.49
6933.41
6933.36
6933.31
6933.28
6933.26
6933.25
6933.26
6933.27
6933.3
6933.34
6933.38
6933.43
6933.5
6933.57
6933.64
6933.73
6933.82
6933.91
6934.01
6934.11
6934.22
6934.33
6934.44
6934.55
6934.67
6934.78
6934.9
6935.01
6935.12
6935.24
6935.33
6935.45
6935.54
6935.68
6935.77
6935.92
6936.01
6936.08
6936.16
6936.29
6936.36
6936.69
6936.77
6936.6
6936.67
6936.66
6936.72
6936.77
6936.82
6936.81
6936.87
6936.86
6936.92
6936.92
6936.95
6936.97
6937.08
6937.1
6937.31
6937.33
6937.19
6937.27
6937.26
6937.39
6937.47
6937.64
6937.76
6937.92
6938.09
6938.3
6938.51
6938.77
6939.06
6939.39
6939.78
6940.03
6940.57
6940.71
6941.47
6941.84
6943.06
6943.65
6944.14
6944.76
6945.45
6946.17
6946.98
6947.77
6948.57
6949.38
6950.21
6951.09
6951.99
6952.92
6953.88
6954.86
6955.87
6956.92
6958
6959.12
6960.28
6961.47
6962.69
6963.95
6965.25
6966.58
6967.94
6969.33
6970.76
6972.22
6973.71
6975.23
6976.79
6978.37
6979.98
6981.61
6983.28
6984.97
6986.69
6988.43
6990.2
6991.99
6993.81
6995.65
6997.52
6999.41
7001.32
7003.25
7005.2
7007.18
7009.17
7011.19
7013.22
7015.28
7017.35
7019.45
7021.56
7023.69
7025.83
7028
7030.18
7032.38
7034.59
7036.82
7039.07
7041.33
7043.6
7045.89
7048.2
7050.51
7052.84
7055.19
7057.54
7059.91
7062.29
7064.69
7067.09
7069.51
7071.93
7074.37
7076.82
7079.28
7081.74
7084.22
7086.71
7089.21
7091.72
7094.23
7096.76
7099.29
7101.83
7104.39
7106.94
7110.47
6459.86
6443.29
6438.28
6428.72
6420.28
6411.87
6403.57
6395.41
6387.44
6379.78
6372.31
6364.92
6357.66
6350.6
6343.78
6337.26
6331.04
6325.13
6319.46
6313.97
6308.64
6303.44
6298.39
6293.5
6288.77
6284.2
6279.85
6275.74
6271.9
6268.34
6265.04
6261.99
6259.18
6256.62
6254.3
6252.18
6250.29
6248.59
6247.07
6245.74
6244.63
6243.76
6243.1
6242.62
6242.34
6242.3
6242.47
6242.86
6243.47
6244.27
6245.28
6246.47
6247.87
6249.45
6251.22
6253.16
6255.31
6257.65
6260.15
6262.82
6265.65
6268.65
6271.79
6275.05
6278.46
6282.01
6285.69
6289.5
6293.41
6297.41
6301.47
6305.66
6309.92
6314.28
6318.73
6323.25
6327.85
6332.49
6337.24
6342.06
6346.98
6351.99
6357.09
6362.32
6367.66
6373.09
6378.55
6384.07
6389.82
6395.76
6401.5
6407.56
6413.39
6417.57
6420.26
6430.48
6440.24
6446.42
6453.33
6460.55
6467.03
6475.04
6482.6
6490.58
6498.19
6506.21
6513.75
6521.86
6529.6
6538.08
6546.64
6555.18
6563.17
6571.37
6575.9
6585.13
6599.48
6609.96
6620.33
6630.53
6640.46
6650.97
6662.08
6672.87
6683.77
6694.55
6705.63
6717.25
6728.59
6739.36
6750.75
6758.93
6770.82
6785.64
6797.83
6809.93
6821.04
6832.61
6843.64
6855.14
6866.81
6878.14
6889.37
6900.48
6911.4
6922.24
6932.95
6943.47
6953.84
6964.03
6974.03
6983.83
6993.44
7002.85
7012.03
7021
7029.74
7038.25
7046.53
7054.58
7062.39
7069.95
7077.26
7084.32
7091.14
7097.72
7104.06
7110.15
7115.99
7121.59
7126.95
7132.09
7136.99
7141.66
7146.11
7150.34
7154.35
7158.17
7161.78
7165.2
7168.44
7171.49
7174.37
7177.08
7179.65
7182.07
7184.36
7186.52
7188.55
7190.47
7192.28
7193.99
7195.61
7197.14
7198.58
7199.92
7201.16
7202.29
7203.32
7204.24
7205.04
7205.71
7206.24
7206.64
7206.89
7207
7206.95
7206.76
7206.42
7205.92
7205.26
7204.43
7203.44
7202.29
7200.97
7199.49
7197.84
7196.04
7194.06
7191.93
7189.63
7187.17
7184.56
7181.79
7178.87
7175.8
7172.58
7169.22
7165.71
7162.07
7158.29
7154.38
7150.35
7146.19
7141.92
7137.54
7133.04
7128.45
7123.76
7118.96
7114.08
7109.11
7104.06
7098.94
7093.75
7088.49
7083.17
7077.78
7072.35
7066.87
7061.35
7055.79
7050.2
7044.58
7038.94
7033.28
7027.61
7021.94
7016.25
7010.57
7004.9
6999.23
6993.58
6987.95
6982.35
6976.78
6971.24
6965.73
6960.27
6954.84
6949.47
6944.15
6938.89
6933.68
6928.53
6923.44
6918.43
6913.48
6908.61
6903.8
6899.08
6894.43
6889.86
6885.36
6880.95
6876.63
6872.39
6868.23
6864.16
6860.18
6856.28
6852.47
6848.75
6845.11
6841.56
6838.1
6834.73
6831.45
6828.25
6825.14
6822.12
6819.18
6816.32
6813.54
6810.85
6808.23
6805.7
6803.24
6800.85
6798.54
6796.3
6794.14
6792.04
6790.01
6788.05
6786.15
6784.31
6782.53
6780.81
6779.14
6777.53
6775.97
6774.45
6772.99
6771.57
6770.19
6768.85
6767.55
6766.29
6765.06
6763.87
6762.71
6761.58
6760.47
6759.39
6758.34
6757.31
6756.3
6755.32
6754.36
6753.43
6752.52
6751.64
6750.78
6749.95
6749.15
6748.37
6747.62
6746.9
6746.21
6745.54
6744.91
6744.3
6743.72
6743.16
6742.64
6742.14
6741.66
6741.22
6740.8
6740.4
6740.03
6739.69
6739.37
6739.07
6738.8
6738.54
6738.31
6738.1
6737.91
6737.74
6737.58
6737.45
6737.33
6737.23
6737.15
6737.08
6737.02
6736.98
6736.96
6736.94
6736.94
6736.95
6736.97
6737.01
6737.05
6737.1
6737.16
6737.23
6737.3
6737.39
6737.48
6737.57
6737.67
6737.78
6737.89
6738
6738.11
6738.22
6738.35
6738.46
6738.59
6738.7
6738.82
6738.93
6739.06
6739.17
6739.31
6739.41
6739.46
6739.57
6739.62
6739.79
6739.84
6740.2
6740.27
6740.11
6740.18
6740.18
6740.25
6740.3
6740.35
6740.34
6740.39
6740.39
6740.44
6740.44
6740.45
6740.47
6740.55
6740.56
6740.71
6740.72
6740.5
6740.57
6740.49
6740.57
6740.58
6740.69
6740.74
6740.84
6740.93
6741.07
6741.19
6741.4
6741.56
6741.85
6742.08
6742.37
6742.64
6742.93
6743.25
6744.11
6744.61
6744.96
6745.46
6745.99
6746.63
6747.26
6747.98
6748.7
6749.42
6750.16
6750.92
6751.72
6752.55
6753.41
6754.29
6755.2
6756.14
6757.1
6758.1
6759.13
6760.19
6761.29
6762.42
6763.59
6764.79
6766.03
6767.3
6768.6
6769.94
6771.31
6772.72
6774.15
6775.62
6777.12
6778.65
6780.21
6781.79
6783.41
6785.05
6786.73
6788.42
6790.15
6791.9
6793.67
6795.47
6797.3
6799.14
6801.02
6802.91
6804.82
6806.76
6808.72
6810.7
6812.7
6814.72
6816.76
6818.82
6820.9
6823
6825.11
6827.25
6829.4
6831.57
6833.75
6835.95
6838.17
6840.4
6842.65
6844.92
6847.2
6849.49
6851.8
6854.12
6856.45
6858.8
6861.16
6863.53
6865.92
6868.31
6870.72
6873.14
6875.57
6878.01
6880.46
6882.92
6885.39
6887.87
6890.36
6892.86
6895.37
6897.89
6900.42
6902.95
6905.49
6908.06
6910.61
6914.13
6262.06
6245.26
6239.99
6230.47
6221.9
6213.39
6205.02
6196.84
6188.86
6181.1
6173.55
6166.14
6158.9
6151.85
6145.02
6138.42
6132.08
6126
6120.15
6114.51
6109.06
6103.79
6098.71
6093.81
6089.08
6084.55
6080.23
6076.16
6072.33
6068.76
6065.44
6062.36
6059.52
6056.92
6054.6
6052.49
6050.59
6048.86
6047.33
6046.05
6044.99
6044.16
6043.55
6043.1
6042.86
6042.85
6043.06
6043.52
6044.18
6045.05
6046.13
6047.4
6048.82
6050.46
6052.28
6054.34
6056.52
6058.89
6061.47
6064.22
6067.15
6070.23
6073.45
6076.82
6080.32
6083.97
6087.75
6091.66
6095.68
6099.81
6104.03
6108.33
6112.71
6117.21
6121.81
6126.5
6131.28
6136.14
6141.05
6146.08
6151.2
6156.41
6161.71
6167.14
6172.69
6178.33
6183.98
6189.7
6195.55
6201.4
6207.24
6213.37
6219.81
6226.04
6232.65
6239.02
6243.59
6246.49
6257.39
6267.63
6274.28
6281.64
6289.42
6296.3
6304.92
6313.02
6321.46
6329.58
6337.84
6345.99
6354.15
6362.39
6371.02
6380.08
6388.9
6397.48
6405.84
6410.88
6420.49
6435.41
6446.39
6457.2
6467.88
6478.18
6489.1
6500.58
6511.71
6522.96
6534.01
6545.33
6557.25
6568.54
6580.25
6590.98
6602.08
6610.36
6621.8
6636.63
6648.25
6659.77
6671.17
6682.18
6693.45
6704.9
6715.96
6726.88
6737.65
6748.21
6758.63
6768.91
6778.96
6788.83
6798.49
6807.96
6817.2
6826.22
6834.99
6843.54
6851.85
6859.93
6867.76
6875.34
6882.67
6889.74
6896.57
6903.16
6909.5
6915.6
6921.44
6927.04
6932.4
6937.53
6942.43
6947.1
6951.54
6955.77
6959.78
6963.59
6967.21
6970.63
6973.86
6976.91
6979.79
6982.52
6985.08
6987.5
6989.79
6991.95
6993.99
6995.9
6997.7
6999.41
7001.01
7002.52
7003.94
7005.25
7006.47
7007.58
7008.58
7009.48
7010.26
7010.91
7011.43
7011.81
7012.05
7012.15
7012.1
7011.91
7011.56
7011.05
7010.37
7009.53
7008.53
7007.37
7006.05
7004.56
7002.9
7001.08
6999.09
6996.94
6994.63
6992.16
6989.53
6986.74
6983.8
6980.71
6977.47
6974.09
6970.57
6966.9
6963.1
6959.17
6955.11
6950.93
6946.64
6942.23
6937.71
6933.09
6928.37
6923.55
6918.65
6913.66
6908.58
6903.43
6898.21
6892.92
6887.57
6882.16
6876.7
6871.19
6865.64
6860.05
6854.43
6848.78
6843.11
6837.42
6831.72
6826.01
6820.29
6814.58
6808.87
6803.18
6797.49
6791.83
6786.2
6780.59
6775.02
6769.49
6763.99
6758.54
6753.14
6747.79
6742.5
6737.26
6732.09
6726.98
6721.94
6716.97
6712.08
6707.25
6702.51
6697.84
6693.25
6688.75
6684.32
6679.98
6675.73
6671.56
6667.48
6663.49
6659.59
6655.77
6652.05
6648.4
6644.85
6641.39
6638.01
6634.72
6631.52
6628.41
6625.38
6622.44
6619.59
6616.81
6614.12
6611.51
6608.97
6606.51
6604.13
6601.82
6599.59
6597.42
6595.33
6593.31
6591.35
6589.45
6587.61
6585.84
6584.12
6582.46
6580.85
6579.29
6577.78
6576.32
6574.9
6573.52
6572.19
6570.89
6569.64
6568.41
6567.22
6566.06
6564.93
6563.83
6562.76
6561.71
6560.69
6559.69
6558.71
6557.76
6556.84
6555.94
6555.06
6554.21
6553.38
6552.59
6551.82
6551.08
6550.36
6549.67
6549.02
6548.38
6547.78
6547.21
6546.66
6546.14
6545.65
6545.18
6544.74
6544.32
6543.94
6543.57
6543.23
6542.92
6542.63
6542.36
6542.11
6541.89
6541.68
6541.5
6541.33
6541.19
6541.06
6540.95
6540.86
6540.78
6540.72
6540.67
6540.64
6540.62
6540.61
6540.61
6540.63
6540.66
6540.7
6540.75
6540.8
6540.87
6540.94
6541.02
6541.12
6541.21
6541.31
6541.41
6541.53
6541.64