/*--------------------------------*- C++ -*----------------------------------*\
| =========                 |                                                 |
| \\      /  F ield         | OpenFOAM: The Open Source CFD Toolbox           |
|  \\    /   O peration     | Version:  v2006                                 |
|   \\  /    A nd           | Website:  www.openfoam.com                      |
|    \\/     M anipulation  |                                                 |
\*---------------------------------------------------------------------------*/
FoamFile
{
    version     2.0;
    format      ascii;
    class       volScalarField;
    location    "8.3";
    object      p_rgh;
}
// * * * * * * * * * * * * * * * * * * * * * * * * * * * * * * * * * * * * * //

dimensions      [1 -1 -2 0 0 0 0];


internalField   nonuniform List<scalar> 
33000
(
7548.98
7531.19
7524.05
7515.45
7507.31
7499.32
7491.18
7482.82
7474.49
7466.34
7458.39
7450.62
7443.03
7435.76
7429.05
7423.03
7417.62
7412.6
7407.46
7401.99
7396.47
7391.17
7386.03
7381.02
7376.16
7371.49
7367.05
7362.91
7359.13
7355.81
7352.88
7350.28
7347.92
7345.67
7343.41
7341.18
7339.07
7337.16
7335.4
7333.81
7332.53
7331.44
7330.61
7329.97
7329.52
7329.29
7329.33
7329.62
7330.06
7330.72
7331.57
7332.58
7333.8
7335.27
7336.93
7338.76
7340.76
7342.9
7345.21
7347.66
7350.24
7352.98
7355.86
7358.86
7361.98
7365.26
7368.71
7372.23
7375.86
7379.6
7383.44
7387.37
7391.35
7395.34
7399.32
7403.25
7406.96
7409.44
7410.19
7416.09
7422.65
7426.76
7431.73
7437.14
7442.09
7447.62
7453.72
7459.47
7465.33
7471.03
7476.89
7482.63
7488.46
7494.23
7499.72
7505.27
7509.85
7515.35
7517.61
7523.41
7533.93
7540.83
7549.1
7557.56
7565.5
7574.26
7583.51
7592.53
7601.8
7610.81
7619.99
7629.01
7637.98
7647.06
7655.5
7664.5
7671.02
7680.24
7692.88
7702.89
7713.71
7724.75
7735.5
7746.8
7758.48
7769.96
7781.67
7793.43
7805.16
7816.97
7828.81
7840.59
7852.37
7864.12
7875.88
7887.56
7899.15
7910.67
7922.1
7933.46
7944.72
7955.88
7966.9
7977.79
7988.58
7999.25
8009.79
8020.16
8030.35
8040.36
8050.18
8059.88
8069.39
8078.67
8087.74
8096.59
8105.24
8113.67
8121.89
8129.89
8137.63
8145.15
8152.43
8159.47
8166.28
8172.85
8179.18
8185.26
8191.12
8196.75
8202.14
8207.29
8212.2
8216.9
8221.41
8225.68
8229.74
8233.57
8237.19
8240.63
8243.9
8246.99
8249.91
8252.65
8255.22
8257.65
8259.93
8262.09
8264.13
8266.06
8267.88
8269.6
8271.25
8272.82
8274.31
8275.7
8276.98
8278.15
8279.19
8280.11
8280.92
8281.61
8282.16
8282.56
8282.81
8282.92
8282.88
8282.69
8282.35
8281.84
8281.17
8280.36
8279.39
8278.26
8276.95
8275.48
8273.84
8272.05
8270.12
8268.03
8265.77
8263.35
8260.76
8258.02
8255.14
8252.12
8248.96
8245.65
8242.2
8238.61
8234.87
8231.02
8227.06
8222.97
8218.76
8214.43
8210
8205.46
8200.82
8196.09
8191.27
8186.36
8181.38
8176.32
8171.19
8166
8160.73
8155.41
8150.05
8144.65
8139.2
8133.72
8128.19
8122.65
8117.08
8111.51
8105.92
8100.32
8094.72
8089.12
8083.53
8077.95
8072.38
8066.84
8061.31
8055.81
8050.34
8044.92
8039.53
8034.19
8028.88
8023.63
8018.43
8013.28
8008.19
8003.18
7998.22
7993.33
7988.5
7983.75
7979.07
7974.45
7969.92
7965.47
7961.1
7956.81
7952.59
7948.46
7944.41
7940.45
7936.57
7932.78
7929.08
7925.46
7921.93
7918.48
7915.11
7911.83
7908.64
7905.53
7902.5
7899.55
7896.69
7893.91
7891.21
7888.6
7886.05
7883.59
7881.2
7878.89
7876.64
7874.47
7872.36
7870.32
7868.34
7866.43
7864.58
7862.79
7861.06
7859.38
7857.75
7856.18
7854.66
7853.18
7851.75
7850.36
7849.01
7847.71
7846.44
7845.2
7844
7842.83
7841.69
7840.58
7839.49
7838.42
7837.38
7836.36
7835.37
7834.4
7833.45
7832.53
7831.63
7830.76
7829.92
7829.1
7828.31
7827.55
7826.82
7826.11
7825.44
7824.79
7824.16
7823.57
7823
7822.46
7821.95
7821.47
7821.01
7820.57
7820.16
7819.78
7819.42
7819.08
7818.77
7818.48
7818.21
7817.96
7817.73
7817.53
7817.34
7817.17
7817.02
7816.88
7816.77
7816.67
7816.58
7816.51
7816.46
7816.41
7816.38
7816.37
7816.36
7816.37
7816.38
7816.41
7816.44
7816.49
7816.54
7816.6
7816.66
7816.74
7816.82
7816.9
7816.99
7817.08
7817.18
7817.28
7817.38
7817.48
7817.59
7817.69
7817.8
7817.91
7818.01
7818.12
7818.23
7818.34
7818.44
7818.55
7818.65
7818.76
7818.87
7818.97
7819.07
7819.18
7819.28
7819.38
7819.48
7819.58
7819.67
7819.78
7819.86
7819.98
7820.07
7820.12
7820.21
7820.32
7820.33
7820.59
7820.62
7820.45
7820.49
7820.47
7820.54
7820.59
7820.69
7820.8
7820.94
7821.11
7821.29
7821.51
7821.72
7821.95
7822.21
7822.55
7822.78
7823.27
7823.55
7823.63
7823.99
7824.24
7824.69
7825.07
7825.6
7826.1
7826.71
7827.31
7827.99
7828.68
7829.45
7830.2
7831.1
7831.92
7832.77
7833.67
7834.64
7835.4
7836.95
7837.7
7838.37
7839.19
7840.07
7841.03
7842.04
7843.1
7844.21
7845.36
7846.55
7847.79
7849.06
7850.36
7851.7
7853.08
7854.49
7855.93
7857.4
7858.91
7860.44
7862.01
7863.6
7865.23
7866.88
7868.56
7870.26
7871.99
7873.75
7875.53
7877.34
7879.17
7881.02
7882.9
7884.8
7886.72
7888.66
7890.63
7892.62
7894.62
7896.65
7898.7
7900.76
7902.85
7904.95
7907.07
7909.21
7911.36
7913.54
7915.73
7917.93
7920.15
7922.39
7924.64
7926.91
7929.19
7931.49
7933.8
7936.12
7938.46
7940.8
7943.17
7945.54
7947.93
7950.32
7952.73
7955.16
7957.59
7960.03
7962.48
7964.95
7967.42
7969.9
7972.4
7974.9
7977.41
7979.94
7982.47
7985.01
7987.57
7990.11
7993.62
7547.1
7529.6
7523
7514.11
7506.01
7497.77
7489.56
7481.26
7472.98
7464.9
7457.06
7449.26
7441.4
7433.83
7426.87
7420.88
7415.98
7411.4
7406.42
7401.15
7395.86
7390.64
7385.48
7380.4
7375.42
7370.6
7366
7361.74
7357.97
7354.71
7351.84
7349.29
7346.97
7344.77
7342.57
7340.36
7338.28
7336.4
7334.62
7333.07
7331.9
7330.88
7330.06
7329.4
7328.88
7328.65
7328.68
7329.07
7329.57
7330.26
7331.1
7332.04
7333.29
7334.73
7336.48
7338.34
7340.34
7342.49
7344.8
7347.26
7349.86
7352.61
7355.51
7358.46
7361.61
7364.93
7368.35
7371.86
7375.56
7379.37
7383.22
7387.15
7391.15
7395.16
7399.14
7403.02
7406.67
7410.15
7414.17
7418.45
7421.15
7421.98
7429.42
7437.86
7443.31
7448.31
7454
7459.32
7464.78
7470.69
7476.84
7482.85
7488.63
7494.76
7500.38
7506.33
7511.88
7517.57
7523.06
7528.34
7534.79
7537.45
7545
7557.36
7565.98
7575.37
7583.91
7592.6
7601.1
7610.04
7619.66
7628.92
7638.12
7647.3
7656.24
7665.37
7674.35
7683.34
7693.34
7700.23
7710.79
7724.69
7735.81
7747.2
7758.45
7769.55
7781.17
7793.26
7805.09
7816.98
7828.77
7840.5
7852.27
7864.1
7875.88
7887.63
7899.21
7910.74
7922.16
7933.53
7944.81
7955.97
7966.98
7977.89
7988.69
7999.36
8009.91
8020.32
8030.51
8040.5
8050.34
8060.03
8069.59
8078.89
8087.96
8096.82
8105.46
8113.9
8122.11
8130.13
8137.88
8145.4
8152.67
8159.71
8166.54
8173.11
8179.43
8185.49
8191.35
8197
8202.39
8207.52
8212.41
8217.13
8221.64
8225.92
8229.97
8233.81
8237.41
8240.83
8244.08
8247.16
8250.1
8252.86
8255.44
8257.85
8260.1
8262.25
8264.31
8266.25
8268.07
8269.78
8271.41
8272.98
8274.47
8275.88
8277.17
8278.34
8279.37
8280.29
8281.1
8281.8
8282.36
8282.76
8283
8283.11
8283.07
8282.89
8282.55
8282.04
8281.35
8280.55
8279.6
8278.46
8277.16
8275.69
8274.03
8272.24
8270.3
8268.22
8265.96
8263.54
8260.95
8258.2
8255.32
8252.29
8249.13
8245.83
8242.37
8238.78
8235.03
8231.17
8227.2
8223.11
8218.91
8214.59
8210.15
8205.6
8200.96
8196.2
8191.37
8186.46
8181.49
8176.44
8171.3
8166.1
8160.82
8155.49
8150.14
8144.74
8139.29
8133.8
8128.27
8122.71
8117.14
8111.56
8105.97
8100.37
8094.77
8089.16
8083.56
8077.97
8072.41
8066.85
8061.32
8055.8
8050.34
8044.91
8039.53
8034.17
8028.87
8023.61
8018.4
8013.24
8008.15
8003.13
7998.18
7993.28
7988.45
7983.7
7979.01
7974.39
7969.85
7965.4
7961.03
7956.74
7952.52
7948.39
7944.34
7940.37
7936.49
7932.7
7929
7925.38
7921.84
7918.39
7915.02
7911.74
7908.55
7905.44
7902.42
7899.47
7896.61
7893.83
7891.13
7888.51
7885.97
7883.51
7881.12
7878.8
7876.56
7874.39
7872.28
7870.24
7868.27
7866.36
7864.51
7862.72
7860.98
7859.31
7857.68
7856.11
7854.59
7853.11
7851.68
7850.29
7848.95
7847.64
7846.37
7845.14
7843.94
7842.77
7841.63
7840.51
7839.43
7838.36
7837.33
7836.31
7835.31
7834.34
7833.39
7832.47
7831.58
7830.71
7829.86
7829.05
7828.26
7827.5
7826.77
7826.06
7825.38
7824.74
7824.11
7823.52
7822.96
7822.42
7821.91
7821.42
7820.96
7820.53
7820.12
7819.74
7819.38
7819.04
7818.73
7818.44
7818.17
7817.92
7817.7
7817.49
7817.3
7817.14
7816.99
7816.85
7816.74
7816.64
7816.55
7816.49
7816.43
7816.39
7816.36
7816.34
7816.34
7816.35
7816.36
7816.39
7816.43
7816.47
7816.52
7816.59
7816.65
7816.73
7816.81
7816.89
7816.98
7817.07
7817.17
7817.27
7817.37
7817.48
7817.58
7817.69
7817.8
7817.91
7818.01
7818.12
7818.23
7818.34
7818.45
7818.55
7818.66
7818.76
7818.87
7818.97
7819.08
7819.18
7819.28
7819.37
7819.49
7819.58
7819.7
7819.79
7819.84
7819.92
7820.04
7820.1
7820.39
7820.47
7820.29
7820.36
7820.33
7820.34
7820.36
7820.39
7820.46
7820.53
7820.65
7820.75
7820.91
7821.05
7821.23
7821.41
7821.71
7821.91
7822.35
7822.57
7822.64
7822.92
7823.15
7823.42
7823.77
7824.11
7824.54
7824.97
7825.47
7826
7826.57
7827.21
7827.85
7828.64
7829.35
7830.12
7830.9
7831.79
7832.56
7834.07
7834.88
7835.49
7836.3
7837.11
7837.99
7838.9
7839.86
7840.86
7841.9
7842.98
7844.1
7845.26
7846.46
7847.7
7848.97
7850.28
7851.63
7853
7854.41
7855.86
7857.33
7858.84
7860.37
7861.94
7863.54
7865.16
7866.81
7868.49
7870.2
7871.93
7873.69
7875.47
7877.28
7879.11
7880.96
7882.84
7884.74
7886.66
7888.61
7890.58
7892.56
7894.57
7896.6
7898.65
7900.71
7902.8
7904.9
7907.02
7909.16
7911.32
7913.49
7915.68
7917.89
7920.11
7922.35
7924.6
7926.87
7929.15
7931.45
7933.76
7936.08
7938.42
7940.77
7943.13
7945.51
7947.89
7950.29
7952.7
7955.12
7957.56
7960
7962.45
7964.91
7967.39
7969.87
7972.37
7974.87
7977.38
7979.9
7982.44
7984.98
7987.54
7990.09
7993.61
7544.18
7527.69
7522.07
7512.7
7504.55
7496.27
7488
7479.58
7471.36
7463.44
7455.87
7448.2
7440.28
7432.5
7425.37
7419.24
7414.13
7409.55
7404.89
7400.09
7395.04
7389.92
7384.8
7379.72
7374.7
7369.77
7365.03
7360.61
7356.72
7353.34
7350.27
7347.57
7345.24
7343.01
7340.86
7338.77
7336.72
7334.73
7333.07
7331.66
7330.65
7329.73
7328.94
7328.3
7327.71
7327.47
7327.52
7327.99
7328.61
7329.31
7330.18
7331.1
7332.28
7333.75
7335.45
7337.47
7339.51
7341.69
7344.03
7346.51
7349.09
7351.75
7354.71
7357.85
7361.24
7364.59
7367.94
7371.29
7374.91
7378.63
7382.52
7386.7
7390.78
7394.83
7398.85
7402.72
7406.62
7410.65
7414.83
7419.34
7423.55
7428.25
7432.95
7435.88
7436.81
7444.48
7453.75
7459.98
7465.99
7470.97
7477.22
7482.52
7488.92
7495.06
7501.24
7507.01
7513.19
7519.32
7525.34
7531.76
7538.52
7545.18
7551.53
7558.52
7561.84
7569.9
7582.94
7592.56
7602.63
7611.19
7620.3
7628.71
7637.73
7647.31
7656.58
7665.98
7675.46
7685.06
7695.29
7705.3
7714.98
7725.43
7732.91
7743.9
7758.32
7769.84
7781.66
7793.33
7804.74
7816.55
7828.68
7840.46
7852.37
7864.16
7876
7887.62
7899.19
7910.71
7922.15
7933.6
7944.94
7956.13
7967.15
7978.08
7988.91
7999.62
8010.24
8020.63
8030.76
8040.79
8050.68
8060.44
8070
8079.29
8088.3
8097.18
8105.95
8114.43
8122.64
8130.56
8138.29
8145.85
8153.13
8160.21
8167.06
8173.63
8179.92
8185.95
8191.82
8197.49
8202.88
8207.97
8212.88
8217.57
8222.08
8226.38
8230.44
8234.27
8237.86
8241.25
8244.49
8247.56
8250.49
8253.27
8255.86
8258.27
8260.5
8262.62
8264.66
8266.63
8268.48
8270.22
8271.83
8273.36
8274.83
8276.24
8277.56
8278.73
8279.75
8280.67
8281.49
8282.21
8282.76
8283.15
8283.39
8283.5
8283.48
8283.31
8282.96
8282.43
8281.74
8280.94
8280
8278.87
8277.57
8276.1
8274.43
8272.62
8270.68
8268.6
8266.36
8263.93
8261.34
8258.57
8255.67
8252.64
8249.49
8246.18
8242.72
8239.11
8235.34
8231.48
8227.52
8223.44
8219.22
8214.88
8210.42
8205.85
8201.17
8196.44
8191.61
8186.73
8181.74
8176.67
8171.52
8166.3
8161
8155.68
8150.31
8144.92
8139.46
8133.96
8128.42
8122.84
8117.28
8111.7
8106.09
8100.46
8094.82
8089.22
8083.63
8078.04
8072.45
8066.89
8061.33
8055.81
8050.33
8044.9
8039.51
8034.15
8028.83
8023.56
8018.35
8013.18
8008.08
8003.04
7998.08
7993.18
7988.35
7983.58
7978.89
7974.26
7969.72
7965.27
7960.89
7956.59
7952.38
7948.24
7944.18
7940.21
7936.34
7932.54
7928.83
7925.2
7921.67
7918.22
7914.85
7911.57
7908.37
7905.26
7902.24
7899.3
7896.44
7893.66
7890.96
7888.34
7885.81
7883.34
7880.95
7878.64
7876.4
7874.22
7872.12
7870.08
7868.11
7866.2
7864.35
7862.57
7860.84
7859.16
7857.54
7855.97
7854.45
7852.97
7851.55
7850.16
7848.82
7847.51
7846.24
7845.01
7843.81
7842.64
7841.5
7840.39
7839.3
7838.24
7837.2
7836.19
7835.19
7834.22
7833.28
7832.36
7831.46
7830.59
7829.75
7828.94
7828.15
7827.39
7826.66
7825.96
7825.28
7824.63
7824.01
7823.42
7822.86
7822.32
7821.81
7821.33
7820.87
7820.44
7820.03
7819.65
7819.3
7818.96
7818.65
7818.36
7818.1
7817.85
7817.63
7817.42
7817.24
7817.07
7816.92
7816.79
7816.68
7816.58
7816.5
7816.43
7816.38
7816.34
7816.32
7816.3
7816.3
7816.31
7816.33
7816.36
7816.39
7816.44
7816.5
7816.56
7816.63
7816.7
7816.79
7816.87
7816.96
7817.06
7817.16
7817.26
7817.36
7817.47
7817.58
7817.69
7817.8
7817.91
7818.01
7818.12
7818.23
7818.34
7818.44
7818.56
7818.66
7818.77
7818.87
7818.98
7819.07
7819.19
7819.28
7819.42
7819.5
7819.56
7819.64
7819.76
7819.83
7820.14
7820.21
7820.04
7820.1
7820.09
7820.14
7820.18
7820.22
7820.22
7820.29
7820.31
7820.39
7820.45
7820.51
7820.64
7820.74
7820.99
7821.12
7821.49
7821.65
7821.65
7821.86
7822.04
7822.29
7822.54
7822.85
7823.11
7823.5
7823.79
7824.28
7824.63
7825.25
7825.7
7826.43
7826.99
7827.68
7828.31
7829.08
7829.77
7831.19
7831.94
7832.54
7833.29
7834.11
7834.95
7835.88
7836.81
7837.7
7838.63
7839.59
7840.6
7841.66
7842.75
7843.88
7845.05
7846.25
7847.5
7848.77
7850.09
7851.44
7852.82
7854.24
7855.68
7857.16
7858.67
7860.21
7861.78
7863.38
7865.01
7866.67
7868.35
7870.06
7871.79
7873.55
7875.34
7877.15
7878.98
7880.84
7882.72
7884.62
7886.55
7888.49
7890.46
7892.45
7894.46
7896.49
7898.54
7900.61
7902.69
7904.8
7906.92
7909.07
7911.22
7913.4
7915.59
7917.8
7920.02
7922.26
7924.52
7926.79
7929.07
7931.37
7933.68
7936.01
7938.35
7940.7
7943.06
7945.44
7947.83
7950.23
7952.64
7955.06
7957.49
7959.94
7962.39
7964.86
7967.33
7969.82
7972.31
7974.82
7977.33
7979.85
7982.39
7984.93
7987.49
7990.04
7993.56
7542.16
7525.77
7520.71
7511.18
7503
7494.72
7486.45
7478.06
7469.73
7461.96
7454.75
7447.25
7439.66
7432.28
7425.29
7419.08
7413.54
7408.35
7403.27
7398.24
7393.17
7388.09
7382.99
7377.96
7373.05
7368.26
7363.57
7359.15
7355.3
7351.92
7348.96
7346.11
7343.55
7341.15
7338.78
7336.54
7334.33
7332.56
7331.02
7329.78
7328.91
7328.02
7327.26
7326.69
7326.26
7325.91
7325.96
7326.55
7327.14
7327.86
7328.75
7329.74
7330.81
7332.3
7334.17
7336.21
7338.26
7340.49
7342.88
7345.4
7348.04
7350.75
7353.69
7357.12
7360.42
7363.78
7367.25
7370.64
7374.13
7377.91
7381.82
7385.86
7390.28
7394.49
7398.67
7402.8
7406.84
7410.99
7415.37
7419.98
7424.5
7429.17
7434.1
7438.78
7444.06
7449.51
7454.5
7458
7459.45
7468.48
7477.71
7483.39
7489.55
7495.95
7501.48
7508.13
7514.63
7521.57
7527.93
7534.59
7541.16
7548.03
7555.31
7563.26
7570.94
7578.98
7585.3
7593.25
7596.77
7605.69
7619.32
7629.07
7638.72
7647.91
7656.96
7666.53
7676.56
7686.32
7696.34
7706.24
7716.56
7727.44
7738.16
7748.33
7759.09
7766.81
7778.2
7793.25
7805.05
7816.97
7828.55
7839.98
7851.89
7864.23
7876.14
7887.94
7899.47
7910.96
7922.31
7933.71
7945.09
7956.39
7967.49
7978.41
7989.25
8000.09
8010.68
8021.04
8031.19
8041.29
8051.22
8061.08
8070.62
8079.85
8088.92
8097.83
8106.61
8115.15
8123.37
8131.29
8139.02
8146.55
8153.84
8160.94
8167.83
8174.41
8180.66
8186.7
8192.55
8198.21
8203.64
8208.71
8213.6
8218.29
8222.75
8227.07
8231.15
8234.98
8238.57
8241.91
8245.15
8248.21
8251.17
8253.94
8256.52
8258.93
8261.14
8263.25
8265.28
8267.23
8269.13
8270.88
8272.52
8274.01
8275.44
8276.82
8278.15
8279.35
8280.4
8281.28
8282.07
8282.78
8283.36
8283.75
8283.99
8284.12
8284.12
8283.93
8283.55
8283
8282.34
8281.55
8280.62
8279.49
8278.18
8276.69
8275
8273.21
8271.27
8269.2
8266.94
8264.51
8261.92
8259.16
8256.22
8253.17
8249.97
8246.67
8243.23
8239.62
8235.84
8231.95
8227.98
8223.89
8219.66
8215.31
8210.8
8206.21
8201.56
8196.82
8192.02
8187.1
8182.09
8176.99
8171.79
8166.57
8161.29
8155.97
8150.62
8145.19
8139.69
8134.14
8128.61
8123.07
8117.49
8111.88
8106.24
8100.57
8094.94
8089.32
8083.72
8078.12
8072.52
8066.93
8061.37
8055.82
8050.32
8044.88
8039.47
8034.1
8028.76
8023.46
8018.24
8013.09
8007.99
8002.93
7997.93
7993.01
7988.18
7983.41
7978.71
7974.07
7969.52
7965.06
7960.68
7956.37
7952.13
7948
7943.96
7939.99
7936.1
7932.3
7928.57
7924.94
7921.41
7917.97
7914.6
7911.32
7908.11
7905
7901.98
7899.05
7896.19
7893.39
7890.7
7888.09
7885.56
7883.09
7880.69
7878.38
7876.15
7873.98
7871.88
7869.83
7867.86
7865.96
7864.12
7862.34
7860.61
7858.93
7857.31
7855.75
7854.23
7852.76
7851.33
7849.95
7848.61
7847.3
7846.04
7844.81
7843.61
7842.44
7841.3
7840.19
7839.1
7838.04
7837.01
7835.99
7835.01
7834.04
7833.1
7832.18
7831.28
7830.41
7829.58
7828.77
7827.98
7827.23
7826.5
7825.79
7825.12
7824.48
7823.86
7823.27
7822.71
7822.18
7821.67
7821.18
7820.73
7820.31
7819.9
7819.52
7819.17
7818.84
7818.53
7818.25
7817.98
7817.74
7817.52
7817.32
7817.13
7816.97
7816.83
7816.7
7816.59
7816.5
7816.42
7816.35
7816.31
7816.27
7816.25
7816.24
7816.24
7816.25
7816.27
7816.3
7816.35
7816.4
7816.45
7816.52
7816.59
7816.67
7816.76
7816.85
7816.94
7817.04
7817.14
7817.25
7817.36
7817.47
7817.57
7817.69
7817.8
7817.91
7818.02
7818.14
7818.24
7818.35
7818.46
7818.55
7818.67
7818.75
7818.88
7818.97
7819.12
7819.2
7819.27
7819.34
7819.47
7819.54
7819.86
7819.94
7819.76
7819.83
7819.82
7819.88
7819.92
7819.97
7819.97
7820.01
7820.02
7820.07
7820.1
7820.11
7820.2
7820.26
7820.43
7820.49
7820.78
7820.88
7820.83
7820.97
7821.1
7821.27
7821.49
7821.68
7821.92
7822.17
7822.47
7822.76
7823.14
7823.49
7823.99
7824.43
7824.92
7825.44
7825.97
7826.58
7827.16
7828.45
7829.14
7829.68
7830.37
7831.14
7831.94
7832.82
7833.69
7834.55
7835.44
7836.35
7837.28
7838.24
7839.24
7840.27
7841.33
7842.44
7843.58
7844.76
7845.97
7847.22
7848.51
7849.83
7851.18
7852.57
7853.99
7855.44
7856.93
7858.44
7859.99
7861.56
7863.16
7864.8
7866.46
7868.14
7869.86
7871.59
7873.36
7875.15
7876.96
7878.8
7880.66
7882.54
7884.45
7886.38
7888.33
7890.3
7892.29
7894.3
7896.33
7898.38
7900.46
7902.55
7904.65
7906.78
7908.92
7911.08
7913.26
7915.46
7917.67
7919.9
7922.14
7924.39
7926.67
7928.95
7931.25
7933.57
7935.9
7938.24
7940.59
7942.96
7945.33
7947.72
7950.13
7952.54
7954.96
7957.4
7959.84
7962.3
7964.77
7967.24
7969.73
7972.22
7974.73
7977.24
7979.77
7982.3
7984.84
7987.4
7989.95
7993.48
7540.46
7523.99
7519.15
7509.57
7501.27
7492.95
7484.71
7476.48
7468.14
7460.29
7453.28
7446.01
7438.61
7431.41
7424.54
7418.15
7412.19
7406.59
7401.18
7395.87
7390.66
7385.53
7380.51
7375.58
7370.75
7366
7361.34
7357.15
7353.3
7349.91
7346.86
7343.9
7341.17
7338.59
7335.97
7333.52
7331.64
7329.96
7328.63
7327.71
7326.62
7325.72
7325
7324.48
7324.15
7324.03
7324.17
7324.53
7325.12
7325.87
7326.82
7327.92
7329.1
7330.56
7332.5
7334.47
7336.57
7338.84
7341.28
7343.87
7346.62
7349.55
7352.62
7355.82
7359.16
7362.61
7366.18
7369.78
7373.21
7376.95
7380.93
7385.02
7389.6
7394.01
7398.33
7402.69
7407.05
7411.41
7415.89
7420.62
7425.36
7430.17
7435.07
7440.01
7445.28
7450.84
7456.04
7461.24
7466.85
7472.34
7476.35
7478.8
7488.38
7497.68
7503.11
7509.55
7516.14
7522.38
7529.96
7536.94
7544.25
7551.18
7558.42
7565.64
7573.22
7581.11
7589.72
7597.6
7605.96
7613.23
7621.16
7625.37
7634.24
7648.08
7658.18
7668.12
7677.85
7687.22
7697.23
7707.95
7718.34
7728.84
7739.28
7750.03
7761.33
7772.28
7782.83
7794.18
7802.28
7813.8
7828.82
7840.68
7852.83
7864.64
7876.27
7887.54
7899.17
7911.07
7922.5
7933.93
7945.3
7956.52
7967.79
7978.98
7989.91
8000.68
8011.24
8021.53
8031.8
8041.95
8052.04
8061.9
8071.39
8080.62
8089.77
8098.71
8107.54
8116.11
8124.38
8132.33
8140.01
8147.55
8154.85
8162
8168.89
8175.45
8181.68
8187.73
8193.57
8199.19
8204.67
8209.82
8214.61
8219.28
8223.73
8228.05
8232.14
8235.97
8239.51
8242.84
8246.08
8249.2
8252.17
8254.91
8257.47
8259.88
8262.09
8264.17
8266.2
8268.13
8270.05
8271.82
8273.45
8274.98
8276.34
8277.69
8279.01
8280.21
8281.26
8282.18
8282.9
8283.56
8284.11
8284.56
8284.88
8285
8284.96
8284.75
8284.32
8283.82
8283.17
8282.42
8281.47
8280.32
8278.99
8277.44
8275.8
8274.01
8272.12
8270
8267.68
8265.2
8262.63
8259.93
8257.03
8253.97
8250.71
8247.32
8243.82
8240.2
8236.45
8232.63
8228.65
8224.52
8220.26
8215.87
8211.33
8206.75
8202.08
8197.37
8192.54
8187.59
8182.53
8177.38
8172.21
8166.97
8161.71
8156.4
8150.99
8145.53
8139.98
8134.43
8128.87
8123.32
8117.73
8112.1
8106.42
8100.74
8095.09
8089.47
8083.85
8078.21
8072.59
8066.99
8061.41
8055.84
8050.3
8044.85
8039.43
8034.02
8028.65
8023.34
8018.12
8012.95
8007.83
8002.76
7997.74
7992.8
7987.94
7983.16
7978.47
7973.84
7969.28
7964.8
7960.37
7956.05
7951.82
7947.69
7943.65
7939.67
7935.78
7931.96
7928.23
7924.6
7921.07
7917.63
7914.26
7910.98
7907.77
7904.66
7901.65
7898.7
7895.83
7893.05
7890.35
7887.75
7885.22
7882.75
7880.36
7878.05
7875.82
7873.65
7871.55
7869.5
7867.53
7865.64
7863.81
7862.03
7860.3
7858.62
7857.01
7855.44
7853.94
7852.47
7851.04
7849.66
7848.31
7847.01
7845.75
7844.52
7843.33
7842.17
7841.02
7839.91
7838.83
7837.77
7836.75
7835.74
7834.75
7833.79
7832.85
7831.93
7831.03
7830.17
7829.34
7828.54
7827.76
7827.01
7826.28
7825.58
7824.91
7824.26
7823.65
7823.07
7822.51
7821.98
7821.47
7821
7820.55
7820.13
7819.73
7819.35
7819
7818.68
7818.37
7818.09
7817.83
7817.59
7817.38
7817.18
7817
7816.84
7816.7
7816.58
7816.48
7816.39
7816.31
7816.25
7816.21
7816.18
7816.16
7816.15
7816.16
7816.17
7816.19
7816.23
7816.28
7816.33
7816.4
7816.46
7816.54
7816.63
7816.72
7816.81
7816.9
7817.01
7817.12
7817.23
7817.34
7817.45
7817.56
7817.67
7817.79
7817.91
7818.02
7818.14
7818.23
7818.35
7818.44
7818.57
7818.67
7818.82
7818.91
7818.98
7819.06
7819.19
7819.26
7819.58
7819.67
7819.5
7819.57
7819.56
7819.62
7819.67
7819.72
7819.71
7819.77
7819.76
7819.82
7819.82
7819.85
7819.87
7819.98
7820
7820.21
7820.23
7820.09
7820.17
7820.16
7820.29
7820.37
7820.54
7820.66
7820.82
7820.99
7821.2
7821.41
7821.67
7821.96
7822.29
7822.68
7822.93
7823.46
7823.61
7824.37
7824.74
7825.96
7826.55
7827.04
7827.65
7828.35
7829.07
7829.87
7830.67
7831.46
7832.27
7833.1
7833.98
7834.88
7835.82
7836.77
7837.76
7838.77
7839.82
7840.9
7842.02
7843.17
7844.36
7845.59
7846.85
7848.15
7849.47
7850.84
7852.23
7853.66
7855.12
7856.61
7858.13
7859.68
7861.26
7862.87
7864.51
7866.18
7867.87
7869.59
7871.33
7873.1
7874.89
7876.71
7878.55
7880.42
7882.31
7884.22
7886.15
7888.1
7890.08
7892.07
7894.09
7896.12
7898.18
7900.25
7902.35
7904.46
7906.59
7908.73
7910.9
7913.08
7915.28
7917.49
7919.72
7921.97
7924.23
7926.5
7928.79
7931.1
7933.41
7935.74
7938.09
7940.44
7942.81
7945.19
7947.59
7949.99
7952.41
7954.83
7957.27
7959.72
7962.18
7964.64
7967.12
7969.61
7972.11
7974.61
7977.13
7979.66
7982.19
7984.73
7987.29
7989.84
7993.37
7538.96
7522.38
7517.38
7507.82
7499.38
7490.97
7482.66
7474.42
7466.02
7457.9
7451.24
7444
7436.76
7429.7
7422.88
7416.36
7410.14
7404.23
7398.56
7393.07
7387.74
7382.54
7377.49
7372.6
7367.86
7363.26
7358.76
7354.47
7350.78
7347.41
7344.14
7341.08
7338.27
7335.6
7332.81
7330.44
7328.56
7327.4
7326.12
7324.83
7323.72
7322.85
7322.19
7321.71
7321.43
7321.39
7321.56
7321.94
7322.56
7323.36
7324.37
7325.56
7326.96
7328.51
7330.16
7332.02
7334.29
7336.73
7339.25
7341.92
7344.75
7347.74
7350.88
7354.15
7357.56
7361.11
7364.79
7368.56
7372.25
7375.8
7379.81
7384.11
7388.92
7393.37
7397.82
7402.35
7406.95
7411.59
7416.33
7421.03
7425.75
7430.79
7436.15
7441.41
7446.76
7452.07
7457.21
7462.6
7468.34
7474.49
7480.54
7486.63
7492.46
7496.46
7498.83
7509.06
7518.81
7525.08
7532.35
7539.64
7546.12
7554.12
7561.59
7569.46
7577.13
7585.27
7592.83
7600.95
7608.64
7617.03
7625.62
7634.25
7642.24
7650.4
7654.93
7664.21
7678.51
7688.87
7699.23
7709.44
7719.5
7730.06
7741.18
7751.96
7762.82
7773.49
7784.54
7796.33
7807.68
7818.45
7829.75
7837.73
7849.59
7864.47
7876.88
7889.02
7900.13
7911.7
7922.69
7934.05
7945.66
7957.01
7968.42
7979.57
7990.5
8001.32
8011.94
8022.27
8032.61
8042.88
8053.09
8062.91
8072.46
8081.7
8090.86
8099.88
8108.81
8117.34
8125.62
8133.64
8141.31
8148.82
8156.18
8163.39
8170.23
8176.8
8183.04
8189.04
8194.88
8200.6
8206.03
8211.16
8215.97
8220.56
8225.07
8229.41
8233.44
8237.24
8240.74
8244.08
8247.37
8250.55
8253.46
8256.18
8258.74
8261.14
8263.4
8265.46
8267.45
8269.36
8271.28
8273.07
8274.7
8276.23
8277.65
8278.91
8280.17
8281.33
8282.37
8283.29
8284.04
8284.65
8285.22
8285.69
8285.98
8286.09
8286.01
8285.72
8285.37
8284.88
8284.31
8283.52
8282.53
8281.37
8279.95
8278.45
8276.81
8275.09
8273.14
8270.99
8268.62
8266.17
8263.57
8260.86
8257.96
8254.89
8251.67
8248.23
8244.68
8241.03
8237.26
8233.43
8229.44
8225.29
8221.02
8216.63
8212.08
8207.43
8202.78
8198.05
8193.18
8188.17
8183.06
8177.93
8172.74
8167.55
8162.26
8156.88
8151.45
8145.93
8140.36
8134.8
8129.23
8123.66
8118.04
8112.38
8106.66
8100.96
8095.3
8089.66
8083.99
8078.33
8072.66
8067
8061.42
8055.87
8050.33
8044.83
8039.36
8033.91
8028.52
8023.21
8017.97
8012.77
8007.63
8002.54
7997.52
7992.53
7987.65
7982.87
7978.17
7973.53
7968.96
7964.46
7960.01
7955.68
7951.46
7947.32
7943.26
7939.28
7935.36
7931.53
7927.82
7924.2
7920.66
7917.2
7913.83
7910.54
7907.33
7904.23
7901.21
7898.27
7895.41
7892.61
7889.93
7887.33
7884.79
7882.33
7879.93
7877.63
7875.4
7873.24
7871.14
7869.09
7867.13
7865.24
7863.41
7861.63
7859.9
7858.23
7856.63
7855.07
7853.55
7852.08
7850.67
7849.29
7847.95
7846.65
7845.38
7844.16
7842.97
7841.81
7840.67
7839.56
7838.49
7837.44
7836.41
7835.4
7834.42
7833.46
7832.52
7831.61
7830.72
7829.87
7829.05
7828.25
7827.47
7826.72
7826
7825.31
7824.64
7824
7823.39
7822.81
7822.26
7821.73
7821.23
7820.76
7820.32
7819.9
7819.5
7819.13
7818.79
7818.47
7818.17
7817.9
7817.64
7817.41
7817.2
7817.01
7816.83
7816.68
7816.54
7816.43
7816.33
7816.25
7816.18
7816.12
7816.08
7816.06
7816.04
7816.04
7816.05
7816.07
7816.1
7816.14
7816.2
7816.26
7816.32
7816.4
7816.48
7816.58
7816.67
7816.76
7816.87
7816.98
7817.09
7817.21
7817.32
7817.44
7817.55
7817.68
7817.8
7817.92
7818.03
7818.16
7818.27
7818.41
7818.51
7818.56
7818.67
7818.72
7818.89
7818.94
7819.3
7819.37
7819.21
7819.27
7819.28
7819.35
7819.4
7819.45
7819.44
7819.49
7819.49
7819.54
7819.54
7819.55
7819.57
7819.65
7819.66
7819.81
7819.82
7819.6
7819.67
7819.59
7819.67
7819.68
7819.79
7819.84
7819.94
7820.03
7820.17
7820.29
7820.5
7820.66
7820.95
7821.18
7821.47
7821.74
7822.03
7822.35
7823.2
7823.71
7824.06
7824.56
7825.09
7825.73
7826.36
7827.08
7827.8
7828.52
7829.25
7830.01
7830.81
7831.65
7832.5
7833.39
7834.3
7835.24
7836.2
7837.2
7838.23
7839.29
7840.39
7841.52
7842.69
7843.89
7845.12
7846.39
7847.7
7849.04
7850.41
7851.81
7853.25
7854.72
7856.22
7857.75
7859.3
7860.89
7862.51
7864.15
7865.83
7867.52
7869.25
7871
7872.77
7874.57
7876.4
7878.24
7880.12
7882.01
7883.92
7885.86
7887.82
7889.8
7891.8
7893.82
7895.86
7897.92
7900
7902.1
7904.21
7906.35
7908.5
7910.67
7912.85
7915.05
7917.27
7919.51
7921.75
7924.02
7926.3
7928.59
7930.9
7933.22
7935.55
7937.9
7940.26
7942.63
7945.02
7947.41
7949.82
7952.24
7954.67
7957.11
7959.56
7962.02
7964.49
7966.97
7969.46
7971.96
7974.47
7976.99
7979.51
7982.05
7984.59
7987.16
7989.71
7993.23
7537.35
7520.56
7515.29
7505.77
7497.2
7488.69
7480.32
7472.08
7463.83
7455.79
7448.64
7441.43
7434.19
7427.15
7420.32
7413.72
7407.38
7401.3
7395.45
7389.81
7384.36
7379.09
7374.01
7369.1
7364.38
7359.83
7355.49
7351.4
7347.59
7344.05
7340.73
7337.66
7334.81
7332.15
7329.66
7327.46
7325.68
7324.1
7322.6
7321.31
7320.2
7319.35
7318.79
7318.39
7318.16
7318.15
7318.34
7318.76
7319.39
7320.27
7321.41
7322.69
7324.12
7325.7
7327.16
7328.64
7331.09
7334.13
7336.76
7339.51
7342.45
7345.53
7348.75
7352.12
7355.62
7359.27
7363.05
7366.96
7370.95
7374.87
7378.72
7382.99
7387.87
7392.42
7397.05
7401.79
7406.58
7411.44
7416.33
7421.2
7426
7431.15
7436.66
7442.4
7447.98
7453.59
7459.11
7464.61
7470.56
7476.66
7482.51
7488.63
7494.98
7501.03
7507.35
7513.91
7518.77
7521.72
7532.65
7542.93
7549.58
7556.94
7564.7
7571.54
7580.11
7588.28
7596.75
7604.77
7612.77
7620.83
7629.39
7637.67
7646.31
7655.36
7664.14
7672.69
7681.04
7686.07
7695.62
7710.5
7721.66
7732.49
7743.16
7753.4
7764.2
7775.64
7786.97
7798.25
7809.3
7820.62
7832.54
7843.78
7855.29
7865.86
7876.96
7885.5
7897.07
7911.92
7923.54
7935.02
7946.32
7957.32
7968.73
7980.2
7991.25
8002.16
8012.8
8023.14
8033.56
8044.12
8054.24
8064.1
8073.76
8083.09
8092.2
8101.42
8110.27
8118.82
8127.11
8135.19
8142.96
8150.48
8157.89
8165.02
8171.85
8178.44
8184.74
8190.75
8196.62
8202.32
8207.67
8212.79
8217.64
8222.26
8226.81
8231.06
8235.06
8238.82
8242.34
8245.69
8249.11
8252.2
8255.08
8257.8
8260.27
8262.64
8265.04
8267.22
8269.19
8270.97
8272.8
8274.58
8276.28
8277.81
8279.22
8280.54
8281.68
8282.66
8283.67
8284.56
8285.41
8286.16
8286.71
8287.1
8287.34
8287.41
8287.23
8287.02
8286.67
8286.26
8285.65
8284.82
8283.83
8282.66
8281.27
8279.69
8278.04
8276.27
8274.36
8272.21
8269.86
8267.34
8264.78
8262.01
8259.06
8255.94
8252.73
8249.37
8245.81
8242.05
8238.24
8234.38
8230.39
8226.23
8221.94
8217.52
8212.88
8208.29
8203.63
8198.85
8193.94
8188.94
8183.79
8178.61
8173.42
8168.2
8162.87
8157.46
8151.99
8146.44
8140.83
8135.25
8129.69
8124.08
8118.41
8112.72
8106.99
8101.22
8095.55
8089.87
8084.17
8078.47
8072.74
8067.05
8061.45
8055.89
8050.32
8044.79
8039.29
8033.79
8028.38
8023.05
8017.79
8012.56
8007.39
8002.28
7997.23
7992.22
7987.32
7982.53
7977.81
7973.14
7968.55
7964.05
7959.62
7955.23
7951
7946.86
7942.78
7938.79
7934.88
7931.02
7927.31
7923.7
7920.15
7916.68
7913.3
7910.02
7906.82
7903.71
7900.68
7897.74
7894.87
7892.1
7889.42
7886.81
7884.27
7881.81
7879.42
7877.11
7874.88
7872.72
7870.62
7868.6
7866.64
7864.75
7862.91
7861.13
7859.41
7857.76
7856.15
7854.59
7853.08
7851.61
7850.19
7848.82
7847.49
7846.19
7844.93
7843.71
7842.51
7841.36
7840.23
7839.13
7838.06
7837.01
7835.99
7834.99
7834
7833.05
7832.13
7831.23
7830.35
7829.5
7828.68
7827.89
7827.12
7826.37
7825.66
7824.97
7824.31
7823.68
7823.07
7822.5
7821.96
7821.44
7820.94
7820.47
7820.04
7819.62
7819.23
7818.87
7818.53
7818.22
7817.93
7817.66
7817.41
7817.19
7816.98
7816.8
7816.63
7816.48
7816.36
7816.25
7816.15
7816.08
7816.02
7815.97
7815.94
7815.92
7815.91
7815.91
7815.93
7815.95
7815.99
7816.04
7816.1
7816.17
7816.24
7816.32
7816.41
7816.5
7816.6
7816.7
7816.82
7816.94
7817.06
7817.17
7817.3