/*--------------------------------*- C++ -*----------------------------------*\
| =========                 |                                                 |
| \\      /  F ield         | OpenFOAM: The Open Source CFD Toolbox           |
|  \\    /   O peration     | Version:  v2006                                 |
|   \\  /    A nd           | Website:  www.openfoam.com                      |
|    \\/     M anipulation  |                                                 |
\*---------------------------------------------------------------------------*/
FoamFile
{
    version     2.0;
    format      ascii;
    class       surfaceScalarField;
    location    "8.3";
    object      phi;
}
// * * * * * * * * * * * * * * * * * * * * * * * * * * * * * * * * * * * * * //

dimensions      [0 3 -1 0 0 0 0];
oriented        oriented;


internalField   nonuniform List<scalar> 
65390
(
-2.92707e-05
1.30105e-05
-3.30057e-05
3.73086e-06
-3.44527e-05
1.44318e-06
-3.0805e-05
-3.6508e-06
-2.40928e-05
-6.71474e-06
-1.61672e-05
-7.92758e-06
-8.95363e-06
-7.21512e-06
-3.22846e-06
-5.72636e-06
1.24789e-06
-4.47727e-06
5.25831e-06
-4.01113e-06
9.54817e-06
-4.2904e-06
1.40049e-05
-4.45712e-06
1.78749e-05
-3.87034e-06
2.05204e-05
-2.6458e-06
2.09768e-05
-4.56656e-07
1.78116e-05
3.16506e-06
1.07433e-05
7.06816e-06
2.18244e-06
8.56073e-06
-5.46533e-06
7.64765e-06
-1.04731e-05
5.00765e-06
-1.28623e-05
2.38911e-06
-1.36358e-05
7.73395e-07
-1.30112e-05
-6.24655e-07
-1.14208e-05
-1.59049e-06
-9.49808e-06
-1.92284e-06
-7.66569e-06
-1.83247e-06
-6.39176e-06
-1.27401e-06
-6.01105e-06
-3.80781e-07
-6.91121e-06
9.00091e-07
-9.10555e-06
2.19428e-06
-1.26615e-05
3.55586e-06
-1.74595e-05
4.79796e-06
-2.28557e-05
5.39623e-06
-2.85887e-05
5.73295e-06
-3.42511e-05
5.66237e-06
-3.86769e-05
4.42582e-06
-4.17337e-05
3.05678e-06
-4.46839e-05
2.95016e-06
-4.78495e-05
3.16563e-06
-5.04866e-05
2.63703e-06
-5.1744e-05
1.25747e-06
-5.21929e-05
4.48876e-07
-5.25059e-05
3.13019e-07
-5.30217e-05
5.15855e-07
-5.41727e-05
1.15102e-06
-5.566e-05
1.48732e-06
-5.69523e-05
1.29231e-06
-5.75512e-05
5.98936e-07
-5.75204e-05
-3.07249e-08
-5.73722e-05
-1.48199e-07
-5.74999e-05
1.27774e-07
-5.8208e-05
7.08097e-07
-5.9106e-05
8.98086e-07
-5.98836e-05
7.77562e-07
-6.02395e-05
3.56003e-07
-6.00695e-05
-1.69954e-07
-5.9532e-05
-5.37516e-07
-5.8776e-05
-7.55893e-07
-5.78101e-05
-9.65816e-07
-5.66445e-05
-1.16559e-06
-5.55015e-05
-1.1429e-06
-5.47906e-05
-7.10844e-07
-5.46517e-05
-1.38859e-07
-5.48405e-05
1.88827e-07
-5.51079e-05
2.67515e-07
-5.52724e-05
1.64544e-07
-5.52556e-05
-1.6812e-08
-5.52691e-05
1.36303e-08
-5.52509e-05
-1.82095e-08
-5.48783e-05
-3.72504e-07
-5.39013e-05
-9.76959e-07
-5.22861e-05
-1.61508e-06
-4.99771e-05
-2.30897e-06
-4.70357e-05
-2.9414e-06
-4.33319e-05
-3.70369e-06
-3.87244e-05
-4.60748e-06
-3.30052e-05
-5.71917e-06
-2.59775e-05
-7.02763e-06
-2.03781e-05
-5.5994e-06
-1.82854e-05
-2.09267e-06
-1.70999e-05
-1.18547e-06
-1.74518e-05
3.51959e-07
-1.79398e-05
4.87983e-07
-1.86741e-05
7.3437e-07
-1.96453e-05
9.71192e-07
-2.03412e-05
6.95892e-07
-2.09747e-05
6.33528e-07
-2.16259e-05
6.51225e-07
-2.22105e-05
5.84663e-07
-2.2749e-05
5.38483e-07
-2.30448e-05
2.95787e-07
-2.31788e-05
1.34023e-07
-2.31986e-05
1.9897e-08
-2.31781e-05
-2.05179e-08
-2.31092e-05
-6.89379e-08
-2.30318e-05
-7.7347e-08
-2.28326e-05
-1.99211e-07
-2.23859e-05
-4.46641e-07
-2.13155e-05
-1.0704e-06
-2.05779e-05
-7.37545e-07
-2.04645e-05
-1.13366e-07
-2.05396e-05
7.50964e-08
-2.06746e-05
1.35033e-07
-2.06699e-05
-4.67543e-09
-2.10234e-05
3.53466e-07
-2.12962e-05
2.72831e-07
-2.13581e-05
6.19076e-08
-2.13923e-05
3.42112e-08
-2.13332e-05
-5.90594e-08
-2.12336e-05
-9.95718e-08
-2.10768e-05
-1.56753e-07
-2.09017e-05
-1.75056e-07
-2.06405e-05
-2.6121e-07
-2.02827e-05
-3.57804e-07
-1.96395e-05
-6.43114e-07
-1.87029e-05
-9.36626e-07
-1.72574e-05
-1.44547e-06
-1.61685e-05
-1.08887e-06
-1.58431e-05
-3.25361e-07
-1.57965e-05
-4.64743e-08
-1.593e-05
1.33527e-07
-1.5949e-05
1.89988e-08
-1.61466e-05
1.97649e-07
-1.62882e-05
1.41591e-07
-1.62854e-05
-2.72009e-09
-1.63121e-05
2.67277e-08
-1.63295e-05
1.74316e-08
-1.63248e-05
-4.64669e-09
-1.63301e-05
5.34687e-09
-1.63139e-05
-1.62104e-08
-1.62726e-05
-4.12333e-08
-1.62339e-05
-3.87225e-08
-1.61904e-05
-4.34041e-08
-1.61381e-05
-5.22943e-08
-1.60677e-05
-7.03194e-08
-1.59828e-05
-8.48491e-08
-1.58948e-05
-8.79341e-08
-1.58028e-05
-9.1994e-08
-1.57093e-05
-9.34061e-08
-1.56068e-05
-1.02464e-07
-1.54934e-05
-1.13353e-07
-1.53709e-05
-1.22522e-07
-1.52459e-05
-1.24967e-07
-1.51218e-05
-1.23959e-07
-1.49918e-05
-1.2999e-07
-1.48507e-05
-1.41068e-07
-1.46949e-05
-1.55696e-07
-1.45254e-05
-1.69502e-07
-1.43519e-05
-1.73487e-07
-1.4182e-05
-1.69766e-07
-1.40137e-05
-1.6826e-07
-1.38312e-05
-1.82478e-07
-1.3625e-05
-2.06182e-07
-1.34098e-05
-2.15075e-07
-1.31946e-05
-2.15209e-07
-1.29768e-05
-2.17722e-07
-1.27529e-05
-2.2386e-07
-1.25186e-05
-2.34228e-07
-1.22746e-05
-2.43985e-07
-1.20208e-05
-2.53763e-07
-1.176e-05
-2.60722e-07
-1.14907e-05
-2.6926e-07
-1.1217e-05
-2.73672e-07
-1.09398e-05
-2.77105e-07
-1.06484e-05
-2.91434e-07
-1.0343e-05
-3.05366e-07
-1.00348e-05
-3.08107e-07
-9.73055e-06
-3.0421e-07
-9.41642e-06
-3.1409e-07
-9.08178e-06
-3.34589e-07
-8.73394e-06
-3.47793e-07
-8.38693e-06
-3.46957e-07
-8.04667e-06
-3.40215e-07
-7.69728e-06
-3.49343e-07
-7.32294e-06
-3.74287e-07
-6.93062e-06
-3.92276e-07
-6.52638e-06
-4.04184e-07
-6.11917e-06
-4.07164e-07
-5.72295e-06
-3.96167e-07
-5.32956e-06
-3.93348e-07
-4.92187e-06
-4.07634e-07
-4.50075e-06
-4.21078e-07
-4.05835e-06
-4.42347e-07
-3.60249e-06
-4.55807e-07
-3.14616e-06
-4.56273e-07
-2.6947e-06
-4.51414e-07
-2.25807e-06
-4.36566e-07
-1.82253e-06
-4.35485e-07
-1.3765e-06
-4.45969e-07
-9.25228e-07
-4.51211e-07
-4.82986e-07
-4.42177e-07
-6.18564e-08
-4.21063e-07
3.42831e-07
-4.04618e-07
7.3781e-07
-3.94907e-07
1.13101e-06
-3.93127e-07
1.52413e-06
-3.93047e-07
1.91297e-06
-3.88759e-07
2.2899e-06
-3.76856e-07
2.6459e-06
-3.55916e-07
2.98663e-06
-3.40655e-07
3.32178e-06
-3.35069e-07
3.65942e-06
-3.37564e-07
3.99625e-06
-3.36749e-07
4.32462e-06
-3.28302e-07
4.64118e-06
-3.16487e-07
4.94647e-06
-3.0522e-07
5.24638e-06
-2.99849e-07
5.54549e-06
-2.99052e-07
5.83928e-06
-2.93734e-07
6.11941e-06
-2.80078e-07
6.38581e-06
-2.66362e-07
6.6521e-06
-2.66247e-07
6.91912e-06
-2.66987e-07
7.1816e-06
-2.62454e-07
7.43748e-06
-2.55848e-07
7.68179e-06
-2.44291e-07
7.91159e-06
-2.29781e-07
8.13418e-06
-2.22577e-07
8.35539e-06
-2.21187e-07
8.57559e-06
-2.20196e-07
8.7909e-06
-2.15292e-07
8.99935e-06
-2.08438e-07
9.19688e-06
-1.97523e-07
9.3821e-06
-1.85207e-07
9.56007e-06
-1.77957e-07
9.73361e-06
-1.73527e-07
9.90415e-06
-1.70524e-07
1.00699e-05
-1.65684e-07
1.02287e-05
-1.58857e-07
1.03772e-05
-1.4844e-07
1.05141e-05
-1.36846e-07
1.06439e-05
-1.29861e-07
1.07695e-05
-1.25541e-07
1.0891e-05
-1.21431e-07
1.10068e-05
-1.15787e-07
1.11147e-05
-1.07901e-07
1.12145e-05
-9.97235e-08
1.13066e-05
-9.20995e-08
1.13913e-05
-8.46831e-08
1.14679e-05
-7.65314e-08
1.1537e-05
-6.91073e-08
1.15999e-05
-6.28697e-08
1.16586e-05
-5.86387e-08
1.17122e-05
-5.35302e-08
1.17594e-05
-4.72335e-08
1.17995e-05
-4.01027e-08
1.18293e-05
-2.97854e-08
1.1851e-05
-2.16606e-08
1.187e-05
-1.89852e-08
1.18855e-05
-1.54693e-08
1.1895e-05
-9.50318e-09
1.18978e-05
-2.81928e-09
1.18925e-05
5.39317e-09
1.18801e-05
1.24007e-08
1.18629e-05
1.71511e-08
1.18415e-05
2.14115e-08
1.18156e-05
2.59044e-08
1.17837e-05
3.19507e-08
1.17456e-05
3.80843e-08
1.1702e-05
4.3638e-08
1.16532e-05
4.87607e-08
1.16006e-05
5.25993e-08
1.15445e-05
5.61596e-08
1.14836e-05
6.09029e-08
1.14161e-05
6.75058e-08
1.1341e-05
7.5109e-08
1.12615e-05
7.95311e-08
1.11807e-05
8.07966e-08
1.10971e-05
8.36601e-08
1.10093e-05
8.78799e-08
1.09173e-05
9.20359e-08
1.08208e-05
9.65605e-08
1.07183e-05
1.02538e-07
1.06105e-05
1.07821e-07
1.04995e-05
1.10983e-07
1.03866e-05
1.12971e-07
1.02711e-05
1.15554e-07
1.01522e-05
1.18957e-07
1.00301e-05
1.22135e-07
9.90539e-06
1.24795e-07
9.77639e-06
1.29055e-07
9.64111e-06
1.3533e-07
9.50264e-06
1.38521e-07
9.36373e-06
1.38948e-07
9.22295e-06
1.40821e-07
9.07885e-06
1.44127e-07
8.9318e-06
1.47076e-07
8.78201e-06
1.49804e-07
8.62821e-06
1.53804e-07
8.47064e-06
1.57572e-07
8.31088e-06
1.59763e-07
8.14976e-06
1.61124e-07
7.98667e-06
1.63104e-07
7.82122e-06
1.65464e-07
7.65367e-06
1.67561e-07
7.48275e-06
1.70944e-07
7.30867e-06
1.7411e-07
7.1326e-06
1.76106e-07
6.95502e-06
1.77604e-07
6.77605e-06
1.79001e-07
6.59594e-06
1.8014e-07
6.41328e-06
1.82682e-07
6.22765e-06
1.85644e-07
6.04061e-06
1.87041e-07
5.85278e-06
1.87833e-07
5.66452e-06
1.88248e-07
5.47478e-06
1.89729e-07
5.28359e-06
1.9117e-07
5.09174e-06
1.91824e-07
4.89987e-06
1.91845e-07
4.70828e-06
1.91568e-07
4.51616e-06
1.9209e-07
4.32255e-06
1.93581e-07
4.12822e-06
1.94302e-07
3.93489e-06
1.93302e-07
3.7427e-06
1.92167e-07
3.55086e-06
1.91816e-07
3.35932e-06
1.91519e-07
3.16808e-06
1.91225e-07
2.97732e-06
1.90732e-07
2.78718e-06
1.90126e-07
2.59774e-06
1.89413e-07
2.40891e-06
1.88817e-07
2.22045e-06
1.8844e-07
2.03303e-06
1.87413e-07
1.84728e-06
1.85736e-07
1.66279e-06
1.84473e-07
1.47933e-06
1.83444e-07
1.29748e-06
1.8184e-07
1.11813e-06
1.79343e-07
9.4183e-07
1.76298e-07
7.68468e-07
1.73358e-07
5.97671e-07
1.70794e-07
4.29125e-07
1.68545e-07
2.63751e-07
1.65373e-07
1.02923e-07
1.60828e-07
-5.29472e-08
1.55871e-07
-2.04541e-07
1.51595e-07
-3.51923e-07
1.47383e-07
-4.95185e-07
1.43262e-07
-6.3435e-07
1.39166e-07
-7.69367e-07
1.35016e-07
-9.00188e-07
1.30819e-07
-1.02691e-06
1.26717e-07
-1.14966e-06
1.22753e-07
-1.26836e-06
1.18688e-07
-1.38307e-06
1.14712e-07
-1.49387e-06
1.10787e-07
-1.60085e-06
1.06975e-07
-1.70418e-06
1.03328e-07
-1.80402e-06
9.98324e-08
-1.90037e-06
9.635e-08
-1.99317e-06
9.2792e-08
-2.08241e-06
8.92428e-08
-2.1683e-06
8.588e-08
-2.25098e-06
8.26867e-08
-2.33058e-06
7.95979e-08
-2.40717e-06
7.65908e-08
-2.4807e-06
7.35281e-08
-2.55115e-06
7.04557e-08
-2.61868e-06
6.75362e-08
-2.68339e-06
6.47115e-08
-2.74533e-06
6.19425e-08
-2.80466e-06
5.93346e-08
-2.86162e-06
5.69607e-08
-2.91622e-06
5.45978e-08
-2.96836e-06
5.21437e-08
-3.0178e-06
4.94362e-08
-3.06466e-06
4.68616e-08
-3.10933e-06
4.46663e-08
-3.1521e-06
4.27671e-08
-3.19274e-06
4.06424e-08
-3.23094e-06
3.81964e-08
-3.2668e-06
3.5859e-08
-3.30061e-06
3.38048e-08
-3.33254e-06
3.19302e-08
-3.36267e-06
3.0131e-08
-3.39102e-06
2.83548e-08
-3.41779e-06
2.67718e-08
-3.44306e-06
2.52726e-08
-3.46657e-06
2.35031e-08
-3.48795e-06
2.13857e-08
-3.50771e-06
1.97601e-08
-3.52613e-06
1.84228e-08
-3.54322e-06
1.70873e-08
-3.55897e-06
1.57578e-08
-3.57341e-06
1.44383e-08
-3.58648e-06
1.30678e-08
-3.59813e-06
1.16474e-08
-3.60861e-06
1.04844e-08
-3.61813e-06
9.51898e-09
-3.6266e-06
8.47117e-09
-3.63377e-06
7.16886e-09
-3.63971e-06
5.93672e-09
-3.64465e-06
4.93832e-09
-3.64866e-06
4.00284e-09
-3.65175e-06
3.08142e-09
-3.65426e-06
2.50501e-09
-3.65625e-06
1.9764e-09
-3.65747e-06
1.21187e-09
-3.65793e-06
4.57374e-10
-3.65765e-06
-2.86523e-10
-3.65689e-06
-7.67377e-10
-3.6558e-06
-1.10583e-09
-3.65508e-06
-7.26052e-10
-3.65469e-06
-3.96771e-10
-3.65474e-06
3.80914e-11
-3.65375e-06
-9.93417e-10
-3.65342e-06
-3.3194e-10
-3.6532e-06
-2.26153e-10
-3.65353e-06
3.2574e-10
-3.65359e-06
4.84708e-11
-3.65332e-06
-2.70084e-10
-3.65357e-06
2.46988e-10
-3.65281e-06
-7.66212e-10
-3.65084e-06
-1.97227e-09
-3.64955e-06
-1.2915e-09
-3.64341e-06
-6.13539e-09
-3.63921e-06
-4.19934e-09
-3.64372e-06
4.50438e-09
-3.64195e-06
-1.76528e-09
-3.63975e-06
-2.20235e-09
-3.64023e-06
4.83467e-10
-3.59777e-06
-4.24585e-08
-3.56831e-06
-2.94616e-08
-3.59841e-06
3.00936e-08
-3.58502e-06
-1.33821e-08
-3.63466e-06
4.96392e-08
-3.76621e-06
1.31552e-07
-4.00828e-06
2.42076e-07
-4.2207e-06
2.1242e-07
-4.31617e-06
9.54769e-08
-4.41319e-06
9.70166e-08
-4.47243e-06
5.92439e-08
-4.52978e-06
5.73631e-08
-4.57113e-06
4.13558e-08
-4.60467e-06
3.35389e-08
-4.629e-06
2.43372e-08
-4.65201e-06
2.30155e-08
-4.65901e-06
6.99989e-09
-4.67187e-06
1.28672e-08
-4.69397e-06
2.2104e-08
-4.71496e-06
2.10008e-08
-4.75984e-06
4.48825e-08
-4.77458e-06
1.47451e-08
-4.70995e-06
-6.46262e-08
-4.63714e-06
-7.27988e-08
-4.42956e-06
-2.0757e-07
-4.06844e-06
-3.61122e-07
-3.70977e-06
-3.58654e-07
-3.40288e-06
-3.0689e-07
-3.1912e-06
-2.11673e-07
-3.01017e-06
-1.81022e-07
-2.87438e-06
-1.35788e-07
-2.75031e-06
-1.24058e-07
-2.64721e-06
-1.03098e-07
-2.55634e-06
-9.08597e-08
-2.45215e-06
-1.04174e-07
-2.37565e-06
-7.64894e-08
-2.28927e-06
-8.63596e-08
-2.17404e-06
-1.15215e-07
-2.14022e-06
-3.37906e-08
-1.99326e-06
-1.46935e-07
-1.77624e-06
-2.16998e-07
-1.87858e-06
1.02365e-07
-1.69783e-06
-1.80728e-07
-1.80363e-06
1.05818e-07
-1.6397e-06
-1.63903e-07
-2.27471e-06
6.35022e-07
-3.06201e-06
7.87321e-07
-2.96064e-06
-1.01345e-07
-2.69157e-06
-2.69056e-07
-2.25639e-06
-4.35158e-07
-1.81724e-06
-4.39137e-07
-1.4203e-06
-3.96926e-07
-1.08831e-06
-3.3198e-07
-8.0324e-07
-2.85054e-07
-5.41925e-07
-2.61299e-07
-2.899e-07
-2.52008e-07
-5.15456e-08
-2.38336e-07
1.75557e-07
-2.27084e-07
4.00704e-07
-2.25128e-07
6.25463e-07
-2.24739e-07
8.55325e-07
-2.29843e-07
1.08912e-06
-2.3377e-07
1.32061e-06
-2.31478e-07
1.54944e-06
-2.2881e-07
1.78331e-06
-2.3385e-07
2.02361e-06
-2.40279e-07
2.26422e-06
-2.40589e-07
2.5042e-06
-2.3996e-07
2.74948e-06
-2.45261e-07
3.00261e-06
-2.53118e-07
3.25919e-06
-2.56559e-07
3.51299e-06
-2.53786e-07
3.76608e-06
-2.53075e-07
4.02045e-06
-2.54348e-07
4.27956e-06
-2.59096e-07
4.54244e-06
-2.62858e-07
4.80744e-06
-2.64982e-07
5.07676e-06
-2.69293e-07
5.34904e-06
-2.7226e-07
5.62038e-06
-2.71313e-07
5.88931e-06
-2.68905e-07
6.15896e-06
-2.69615e-07
6.43364e-06
-2.74652e-07
6.71547e-06
-2.81792e-07
7.00419e-06
-2.88683e-07
7.29607e-06
-2.91845e-07
7.59055e-06
-2.94436e-07
7.88456e-06
-2.93966e-07
8.17958e-06
-2.9498e-07
8.47787e-06
-2.98234e-07
8.77743e-06
-2.99515e-07
9.07786e-06
-3.00373e-07
9.38133e-06
-3.03419e-07
9.68886e-06
-3.07474e-07
9.99849e-06
-3.09581e-07
1.03078e-05
-3.09216e-07
1.06155e-05
-3.07706e-07
1.09219e-05
-3.0635e-07
1.12284e-05
-3.06421e-07
1.15365e-05
-3.08025e-07
1.18472e-05
-3.1066e-07
1.21606e-05
-3.13372e-07
1.24765e-05
-3.15837e-07
1.27945e-05
-3.1788e-07
1.31139e-05
-3.19364e-07
1.34344e-05
-3.20509e-07
1.37559e-05
-3.21467e-07
1.40786e-05
-3.22582e-07
1.4403e-05
-3.24406e-07
1.47291e-05
-3.26036e-07
1.50568e-05
-3.27617e-07
1.53845e-05
-3.2767e-07
1.57129e-05
-3.28356e-07
1.60413e-05
-3.28439e-07
1.63724e-05
-3.30983e-07
1.67044e-05
-3.32031e-07
1.70368e-05
-3.32326e-07
1.73693e-05
-3.32436e-07
1.77027e-05
-3.33408e-07
1.80365e-05
-3.33762e-07
1.837e-05
-3.33455e-07
1.87058e-05
-3.35774e-07
1.90453e-05
-3.39515e-07
1.93935e-05
-3.48159e-07
1.97493e-05
-3.55753e-07
2.01085e-05
-3.59217e-07
-4.00829e-07
-2.40885e-05
2.08122e-05
-2.46842e-05
4.33281e-06
-2.30508e-05
-1.84999e-07
-1.91593e-05
-7.53786e-06
-1.50292e-05
-1.08413e-05
-1.135e-05
-1.16039e-05
-7.67879e-06
-1.0884e-05
-3.9862e-06
-9.41713e-06
-7.12554e-07
-7.74947e-06
2.29652e-06
-7.01907e-06
4.9944e-06
-6.98739e-06
7.5248e-06
-6.98682e-06
9.4936e-06
-5.83858e-06
9.84661e-06
-2.99836e-06
8.29517e-06
1.09514e-06
4.95104e-06
6.50948e-06
1.22048e-06
1.0799e-05
-2.67573e-06
1.24571e-05
-6.56135e-06
1.15334e-05
-9.89563e-06
8.34207e-06
-1.25013e-05
4.99495e-06
-1.4043e-05
2.3152e-06
-1.41529e-05
-5.14711e-07
-1.36463e-05
-2.09697e-06
-1.31307e-05
-2.43836e-06
-1.27198e-05
-2.2433e-06
-1.27581e-05
-1.23567e-06
-1.38129e-05
6.74101e-07
-1.6015e-05
3.10221e-06
-1.89923e-05
5.17164e-06
-2.21182e-05
6.68181e-06
-2.55812e-05
8.26099e-06
-2.95463e-05
9.36139e-06
-3.35458e-05
9.73239e-06
-3.66044e-05
8.72105e-06
-3.93133e-05
7.13473e-06
-4.23242e-05
6.06767e-06
-4.52977e-05
5.92367e-06
-4.79686e-05
5.83657e-06
-5.00833e-05
4.75179e-06
-5.13892e-05
2.56334e-06
-5.22322e-05
1.29195e-06
-5.2947e-05
1.02785e-06
-5.3624e-05
1.1929e-06
-5.43156e-05
1.84262e-06
-5.51118e-05
2.28361e-06
-5.596e-05
2.14053e-06
-5.6644e-05
1.28293e-06
-5.69942e-05
3.1956e-07
-5.72874e-05
1.45039e-07
-5.74582e-05
2.98597e-07
-5.77509e-05
1.00086e-06
-5.82506e-05
1.39786e-06
-5.88185e-05
1.34547e-06
-5.9339e-05
8.76595e-07
-5.94989e-05
-1.00008e-08
-5.92095e-05
-8.26887e-07
-5.86431e-05
-1.32221e-06
-5.80507e-05
-1.55817e-06
-5.75535e-05
-1.66269e-06
-5.72039e-05
-1.49245e-06
-5.70592e-05
-8.55444e-07
-5.68692e-05
-3.28819e-07
-5.64568e-05
-2.23453e-07
-5.56633e-05
-5.25986e-07
-5.47834e-05
-7.15219e-07
-5.42206e-05
-5.79621e-07
-5.40659e-05
-1.4097e-07
-5.39927e-05
-9.13283e-08
-5.39114e-05
-4.53711e-07
-5.36488e-05
-1.23952e-06
-5.29929e-05
-2.27082e-06
-5.17914e-05
-3.51045e-06
-5.02318e-05
-4.50087e-06
-4.86496e-05
-5.28583e-06
-4.73913e-05
-5.86567e-06
-4.65407e-05
-6.56965e-06
-4.63796e-05
-7.18871e-06
-4.44474e-05
-7.53149e-06
-3.90658e-05
-7.4742e-06
-3.18582e-05
-8.39303e-06
-2.48001e-05
-6.70605e-06
-2.10509e-05
-3.26121e-06
-1.85472e-05
-1.76932e-06
-1.76579e-05
8.19399e-08
-1.75597e-05
5.97785e-07
-1.78042e-05
8.78099e-07
-1.89507e-05
1.79771e-06
-2.0479e-05
2.11297e-06
-2.14696e-05
1.52919e-06
-2.23111e-05
1.13728e-06
-2.28821e-05
7.0505e-07
-2.32769e-05
4.14783e-07
-2.34319e-05
1.34545e-07
-2.35462e-05
4.53879e-08
-2.35398e-05
-8.36667e-08
-2.35155e-05
-2.23471e-07
-2.35184e-05
-4.4373e-07
-2.39468e-05
-6.41989e-07
-2.43401e-05
-3.44168e-07
-2.41579e-05
-2.9547e-07
-2.30883e-05
-9.94558e-07
-2.21789e-05
-7.74251e-07
-2.18837e-05
-2.99853e-07
-2.14735e-05
-5.66674e-08
-2.11862e-05
-1.44877e-08
-2.09643e-05
-1.59899e-07
-2.0948e-05
1.79219e-08
-2.11917e-05
1.8471e-07
-2.14272e-05
1.35993e-07
-2.1373e-05
-2.10906e-07
-2.12564e-05
-2.9167e-07
-2.1092e-05
-4.2547e-07
-2.09202e-05
-5.29538e-07
-2.08179e-05
-7.45344e-07
-2.07436e-05
-1.01083e-06
-2.08211e-05
-1.36797e-06
-2.04697e-05
-1.4402e-06
-1.95242e-05
-1.27072e-06
-1.80879e-05
-1.48269e-06
-1.6904e-05
-1.05029e-06
-1.64276e-05
-4.57386e-07
-1.61439e-05
-8.59752e-08
-1.60993e-05
9.7104e-08
-1.61104e-05
8.45315e-09
-1.63046e-05
2.21066e-07
-1.64384e-05
1.5123e-07
-1.63939e-05
-4.90168e-08
-1.63519e-05
-3.65334e-08
-1.63107e-05
-5.73353e-08
-1.62725e-05
-7.94031e-08
-1.6257e-05
-5.40881e-08
-1.6224e-05
-7.63187e-08
-1.61564e-05
-1.19828e-07
-1.60763e-05
-1.50375e-07
-1.59853e-05
-1.75713e-07
-1.58966e-05
-1.76552e-07
-1.58046e-05
-1.83859e-07
-1.57151e-05
-1.82831e-07
-1.56162e-05
-2.01342e-07
-1.55056e-05
-2.23823e-07
-1.53867e-05
-2.41341e-07
-1.52623e-05
-2.4925e-07
-1.51332e-05
-2.5303e-07
-1.49971e-05
-2.65973e-07
-1.48509e-05
-2.87126e-07
-1.46934e-05
-3.13098e-07
-1.45283e-05
-3.34534e-07
-1.43631e-05
-3.38596e-07
-1.41948e-05
-3.37976e-07
-1.4016e-05
-3.46988e-07
-1.38236e-05
-3.74807e-07
-1.36184e-05
-4.11318e-07
-1.34086e-05
-4.24791e-07
-1.32002e-05
-4.23492e-07
-1.29852e-05
-4.32664e-07
-1.27547e-05
-4.54249e-07
-1.25098e-05
-4.79049e-07
-1.2259e-05
-4.94704e-07
-1.20074e-05
-5.05245e-07
-1.17521e-05
-5.16025e-07
-1.14863e-05
-5.34971e-07
-1.12141e-05
-5.45793e-07
-1.09334e-05
-5.57689e-07
-1.06369e-05
-5.87896e-07
-1.03312e-05
-6.10976e-07
-1.00238e-05
-6.15446e-07
-9.71673e-06
-6.11169e-07
-9.4005e-06
-6.3024e-07
-9.06763e-06
-6.67372e-07
-8.72335e-06
-6.91998e-07
-8.37894e-06
-6.91275e-07
-8.03081e-06
-6.88269e-07
-7.67287e-06
-7.07196e-07
-7.30439e-06
-7.4269e-07
-6.92099e-06
-7.75591e-07
-6.5251e-06
-7.99988e-07
-6.12046e-06
-8.11714e-07
-5.71317e-06
-8.03375e-07
-5.30854e-06
-7.97887e-07
-4.89974e-06
-8.16348e-07
-4.48418e-06
-8.36549e-07
-4.05388e-06
-8.72552e-07
-3.6093e-06
-9.00288e-07
-3.15756e-06
-9.07914e-07
-2.70605e-06
-9.02821e-07
-2.26632e-06
-8.76183e-07
-1.8364e-06
-8.65292e-07
-1.40676e-06
-8.75493e-07
-9.7256e-07
-8.85289e-07
-5.35708e-07
-8.78905e-07
-1.037e-07
-8.52941e-07
3.14595e-07
-8.2278e-07
7.15455e-07
-7.95629e-07
1.10479e-06
-7.82328e-07
1.49114e-06
-7.79252e-07
1.87521e-06
-7.72683e-07
2.25054e-06
-7.52042e-07
2.61261e-06
-7.17839e-07
2.96291e-06
-6.90808e-07
3.30629e-06
-6.78309e-07
3.64627e-06
-6.77403e-07
3.98035e-06
-6.70698e-07
4.30547e-06
-6.53296e-07
4.6212e-06
-6.32097e-07
4.93136e-06
-6.15267e-07
5.23666e-06
-6.05034e-07
5.53582e-06
-5.98112e-07
5.82655e-06
-5.84373e-07
6.1066e-06
-5.60049e-07
6.37947e-06
-5.39161e-07
6.64911e-06
-5.35825e-07
6.9155e-06
-5.33313e-07
7.17597e-06
-5.22871e-07
7.42927e-06
-5.09107e-07
7.67425e-06
-4.8923e-07
7.90948e-06
-4.64977e-07
8.13716e-06
-4.50226e-07
8.35954e-06
-4.43534e-07
8.5782e-06
-4.38837e-07
8.79113e-06
-4.28188e-07
8.99728e-06
-4.14566e-07
9.19593e-06
-3.96144e-07
9.38591e-06
-3.75165e-07
9.56766e-06
-3.59672e-07
9.74217e-06
-3.48009e-07
9.9112e-06
-3.39515e-07
1.00747e-05
-3.29187e-07
1.02316e-05
-3.15703e-07
1.03803e-05
-2.97041e-07
1.05198e-05
-2.76299e-07
1.06523e-05
-2.62363e-07
1.07796e-05
-2.52745e-07
1.09013e-05
-2.43147e-07
1.10166e-05
-2.30998e-07
1.11246e-05
-2.15893e-07
1.12241e-05
-1.99187e-07
1.13148e-05
-1.82654e-07
1.13976e-05
-1.67517e-07
1.14743e-05
-1.53189e-07
1.15459e-05
-1.40648e-07
1.16121e-05
-1.29028e-07
1.16714e-05
-1.17864e-07
1.17234e-05
-1.05516e-07
1.17684e-05
-9.21518e-08
1.18061e-05
-7.77727e-08
1.18365e-05
-6.02292e-08
1.18616e-05
-4.67473e-08
1.18816e-05
-3.89832e-08
1.18961e-05
-2.98973e-08
1.19037e-05
-1.70759e-08
1.19043e-05
-3.4809e-09
1.18988e-05
1.09037e-08
1.18883e-05
2.29472e-08
1.1873e-05
3.24443e-08
1.18524e-05
4.2074e-08
1.18255e-05
5.27654e-08
1.17914e-05
6.60569e-08
1.17513e-05
7.82096e-08
1.17079e-05
8.71012e-08
1.16606e-05
9.60456e-08
1.16085e-05
1.04769e-07
1.15514e-05
1.13339e-07
1.1489e-05
1.23317e-07
1.14204e-05
1.3614e-07
1.13462e-05
1.4932e-07
1.12682e-05
1.57661e-07
1.11871e-05
1.61908e-07
1.11025e-05
1.68339e-07
1.10135e-05
1.76926e-07
1.09198e-05
1.85815e-07
1.08216e-05
1.94804e-07
1.07196e-05
2.0468e-07
1.06139e-05
2.13551e-07
1.05044e-05
2.20619e-07
1.03906e-05
2.26806e-07
1.02735e-05
2.32801e-07
1.01532e-05
2.39281e-07
1.00303e-05
2.45132e-07
9.90459e-06
2.50609e-07
9.77475e-06
2.58978e-07
9.64065e-06
2.69506e-07
9.50327e-06
2.75982e-07
9.36392e-06
2.78358e-07
9.22219e-06
2.82609e-07
9.07694e-06
2.89423e-07
8.92833e-06
2.95731e-07
8.77724e-06
3.00927e-07
8.62358e-06
3.07497e-07
8.46732e-06
3.13848e-07
8.30865e-06
3.18465e-07
8.14706e-06
3.22739e-07
7.98238e-06
3.27821e-07
7.81516e-06
3.32718e-07
7.64642e-06
3.3634e-07
7.4762e-06
3.41214e-07
7.30398e-06
3.46378e-07
7.12833e-06
3.51803e-07
6.94921e-06
3.56764e-07
6.76843e-06
3.59816e-07
6.58725e-06
3.61348e-07
6.40519e-06
3.64756e-07
6.22091e-06
3.69933e-07
6.03354e-06
3.74413e-07
5.8442e-06
3.77159e-07
5.65536e-06
3.77063e-07
5.46657e-06
3.78477e-07
5.27616e-06
3.81542e-07
5.08352e-06
3.84419e-07
4.89053e-06
3.8478e-07
4.69837e-06
3.83672e-07
4.50622e-06
3.84191e-07
4.3135e-06
3.86246e-07
4.1195e-06
3.88253e-07
3.92517e-06
3.87586e-07
3.73234e-06
3.84949e-07
3.54047e-06
3.83636e-07
3.34907e-06
3.82878e-07
3.15789e-06
3.82366e-07
2.96668e-06
3.81904e-07
2.77594e-06
3.80829e-07
2.58625e-06
3.79066e-07
2.3977e-06
3.77334e-07
2.21016e-06
3.75959e-07
2.02364e-06
3.73911e-07
1.83813e-06
3.71217e-07
1.65371e-06
3.68873e-07
1.47085e-06
3.66293e-07
1.29013e-06
3.62545e-07
1.11191e-06
3.57554e-07
9.36217e-07
3.51983e-07
7.63119e-07
3.46449e-07
5.92779e-07
3.4113e-07
4.25549e-07
3.35772e-07
2.61653e-07
3.29266e-07
1.0121e-07
3.2127e-07
-5.48659e-08
3.11946e-07
-2.06684e-07
3.03412e-07
-3.54157e-07
2.94853e-07
-4.97313e-07
2.86415e-07
-6.36469e-07
2.78317e-07
-7.71712e-07
2.70254e-07
-9.02952e-07
2.62052e-07
-1.0302e-06
2.5396e-07
-1.15336e-06
2.45902e-07
-1.27211e-06
2.37427e-07
-1.38672e-06
2.29313e-07
-1.49749e-06
2.21542e-07
-1.60457e-06
2.1405e-07
-1.70806e-06
2.06813e-07
-1.808e-06
1.99757e-07
-1.90437e-06
1.92715e-07
-1.99718e-06
1.85602e-07
-2.08647e-06
1.78526e-07
-2.17238e-06
1.71789e-07
-2.2551e-06
1.65408e-07
-2.33483e-06
1.59332e-07
-2.41166e-06
1.5342e-07
-2.48535e-06
1.47225e-07
-2.55585e-06
1.40958e-07
-2.62341e-06
1.35102e-07
-2.6882e-06
1.29503e-07
-2.75027e-06
1.24024e-07
-2.80969e-06
1.1875e-07
-2.86652e-06
1.13794e-07
-2.92076e-06
1.0884e-07
-2.97249e-06
1.03872e-07
-3.02178e-06
9.87255e-08
-3.06877e-06
9.3851e-08
-3.11362e-06
8.95151e-08
-3.15643e-06
8.55746e-08
-3.19701e-06
8.12193e-08
-3.23522e-06
7.64009e-08
-3.27107e-06
7.17116e-08
-3.30487e-06
6.76029e-08
-3.33689e-06
6.39548e-08
-3.36721e-06
6.04462e-08
-3.39569e-06
5.68377e-08
-3.42227e-06
5.33554e-08
-3.44695e-06
4.99556e-08
-3.46993e-06
4.64855e-08
-3.49138e-06
4.28408e-08
-3.5113e-06
3.96832e-08
-3.52982e-06
3.69388e-08
-3.547e-06
3.42757e-08
-3.56271e-06
3.14639e-08
-3.57698e-06
2.87076e-08
-3.58992e-06
2.60169e-08
-3.60166e-06
2.33802e-08
-3.61218e-06
2.10082e-08
-3.6215e-06
1.88361e-08
-3.62953e-06
1.64962e-08
-3.63653e-06
1.41577e-08
-3.64254e-06
1.19414e-08
-3.64771e-06
1.00991e-08
-3.6518e-06
8.08436e-09
-3.65491e-06
6.17334e-09
-3.657e-06
4.58759e-09
-3.65847e-06
3.42675e-09
-3.65939e-06
2.11441e-09
-3.66003e-06
1.08118e-09
-3.65974e-06
-5.93038e-10
-3.65909e-06
-1.42871e-09
-3.65781e-06
-2.40519e-09
-3.65663e-06
-1.91655e-09
-3.65476e-06
-2.28486e-09
-3.65355e-06
-1.18577e-09
-3.65153e-06
-3.01705e-09
-3.65113e-06
-7.46615e-10
-3.6525e-06
1.13643e-09
-3.65385e-06
1.66034e-09
-3.65596e-06
2.15816e-09
-3.65477e-06
-1.47111e-09
-3.65432e-06
-2.04929e-10
-3.6479e-06
-7.19298e-09
-3.64566e-06
-4.21873e-09
-3.65249e-06
5.54667e-09
-3.65748e-06
-1.1533e-09
-3.65892e-06
-2.75911e-09
-3.65555e-06
1.13993e-09
-3.60852e-06
-4.8794e-08
-3.58012e-06
-3.06013e-08
-3.61936e-06
3.97219e-08
-3.65535e-06
-6.46253e-09
-3.74585e-06
6.10411e-08
-3.87865e-06
1.62897e-07
-4.1368e-06
2.44765e-07
-4.34619e-06
2.59034e-07
-4.42031e-06
2.05678e-07
-4.44633e-06
2.68104e-07
-4.44461e-06
2.10707e-07
-4.4937e-06
1.44576e-07
-4.52228e-06
1.25604e-07
-4.55807e-06
9.50463e-08
-4.58029e-06
7.9594e-08
-4.59162e-06
5.26863e-08
-4.59471e-06
3.66441e-08
-4.61741e-06
4.70434e-08
-4.65338e-06
5.90003e-08
-4.69543e-06
4.90535e-08
-4.7483e-06
6.57524e-08
-4.74556e-06
1.93797e-08
-4.64264e-06
-8.19079e-08
-4.51763e-06
-8.01171e-08
-4.27829e-06
-2.24589e-07
-3.94173e-06
-4.01163e-07
-3.59338e-06
-4.2114e-07
-3.3503e-06
-4.50642e-07
-3.25147e-06
-4.59932e-07
-3.19076e-06
-4.19352e-07
-3.0973e-06
-4.00335e-07
-3.01687e-06
-2.92091e-07
-2.90635e-06
-2.91534e-07
-2.80533e-06
-2.36795e-07
-2.70524e-06
-2.24128e-07
-2.62875e-06
-1.79577e-07
-2.54856e-06
-1.71024e-07
-2.43474e-06
-2.17971e-07
-2.39656e-06
-1.14644e-07
-2.24218e-06
-2.4071e-07
-2.04189e-06
-3.15472e-07
-2.08513e-06
9.49277e-09
-1.97107e-06
-2.60964e-07
-2.21466e-06
2.66327e-08
-1.9783e-06
-1.33954e-07
-2.644e-06
4.85018e-07
-3.25031e-06
7.12181e-07
-3.18429e-06
-2.29847e-07
-2.78547e-06
2.36278e-07
-1.99746e-06
-6.07957e-10
-1.64225e-06
-4.56481e-07
-1.40679e-06
-5.04444e-07
-1.26739e-06
-5.74496e-07
-1.11385e-06
-5.92618e-07
-9.33105e-07
-5.77608e-07
-7.3479e-07
-5.30237e-07
-5.33419e-07
-4.86369e-07
-3.30195e-07
-4.64467e-07
-1.24773e-07
-4.57377e-07
8.40938e-08
-4.47152e-07
2.97953e-07
-4.40892e-07
5.1738e-07
-4.44506e-07
7.41275e-07
-4.48586e-07
9.69017e-07
-4.57537e-07
1.19636e-06
-4.61068e-07
1.42459e-06
-4.59656e-07
1.65571e-06
-4.59893e-07
1.89099e-06
-4.69079e-07
2.12984e-06
-4.79093e-07
2.3712e-06
-4.81905e-07
2.61631e-06
-4.85025e-07
2.86526e-06
-4.94172e-07
3.11671e-06
-5.04528e-07
3.37071e-06
-5.10517e-07
3.62699e-06
-5.10031e-07
3.88554e-06
-5.1158e-07
4.14647e-06
-5.15234e-07
4.40865e-06
-5.21232e-07
4.67339e-06
-5.27557e-07
4.94222e-06
-5.33766e-07
5.21352e-06
-5.40537e-07
5.48566e-06
-5.44353e-07
5.75826e-06
-5.43851e-07
6.03176e-06
-5.42357e-07
6.30797e-06
-5.45755e-07
6.58735e-06
-5.53971e-07
6.87001e-06
-5.64387e-07
7.15533e-06
-5.73932e-07
7.44309e-06
-5.79525e-07
7.73313e-06
-5.84392e-07
8.02567e-06
-5.86432e-07
8.32091e-06
-5.90127e-07
8.61876e-06
-5.95994e-07
8.91832e-06
-5.9899e-07
9.21906e-06
-6.0102e-07
9.52129e-06
-6.05553e-07
9.82484e-06
-6.1092e-07
1.01295e-05
-6.14189e-07
1.04355e-05
-6.15033e-07
1.07428e-05
-6.14931e-07
1.10519e-05
-6.15346e-07
1.13626e-05
-6.16998e-07
1.16746e-05
-6.19921e-07
1.19877e-05
-6.237e-07
1.23023e-05
-6.27856e-07
1.26186e-05
-6.32033e-07
1.29367e-05
-6.3579e-07
1.32562e-05
-6.38838e-07
1.3577e-05
-6.41184e-07
1.3899e-05
-6.43272e-07
1.42223e-05
-6.45786e-07
1.45471e-05
-6.49085e-07
1.48731e-05
-6.5197e-07
1.52e-05
-6.5434e-07
1.55272e-05
-6.5476e-07
1.58555e-05
-6.56543e-07
1.61854e-05
-6.58243e-07
1.65166e-05
-6.62021e-07
1.68481e-05
-6.63433e-07
1.718e-05
-6.64036e-07
1.7513e-05
-6.65352e-07
1.78475e-05
-6.67812e-07
1.81827e-05
-6.68847e-07
1.85185e-05
-6.69107e-07
1.88549e-05
-6.72125e-07
1.91921e-05
-6.76563e-07
1.95296e-05
-6.85554e-07
1.98669e-05
-6.9301e-07
2.02055e-05
-6.97705e-07
-7.04668e-07
-2.15619e-05
2.60184e-05
-2.04235e-05
3.1911e-06
-1.80611e-05
-2.54993e-06
-1.56049e-05
-9.99585e-06
-1.43616e-05
-1.2086e-05
-1.34094e-05
-1.25572e-05
-1.21524e-05
-1.21418e-05
-1.09439e-05
-1.06263e-05
-1.05131e-05
-8.18066e-06
-1.12213e-05
-6.31127e-06
-1.24501e-05
-5.75883e-06
-1.35318e-05
-5.90534e-06
-1.43182e-05
-5.05235e-06
-1.53686e-05
-1.94805e-06
-1.67475e-05
2.47393e-06
-1.77036e-05
7.46549e-06
-1.75156e-05
1.0611e-05
-1.65861e-05
1.15276e-05
-1.62083e-05
1.11556e-05
-1.70209e-05
9.15465e-06
-1.8788e-05
6.76202e-06
-2.09327e-05
4.45991e-06
-2.36725e-05
2.22503e-06
-2.68043e-05
1.03489e-06
-2.97076e-05
4.64884e-07
-3.23698e-05
4.18922e-07
-3.49215e-05
1.3161e-06
-3.73258e-05
3.0784e-06
-3.96858e-05
5.46224e-06
-4.19346e-05
7.4205e-06
-4.3724e-05
8.47118e-06
-4.46797e-05
9.21675e-06
-4.48325e-05
9.51424e-06
-4.44902e-05
9.39013e-06
-4.44038e-05
8.63478e-06
-4.54178e-05
8.14881e-06
-4.73693e-05
8.01923e-06
-4.93283e-05
7.8827e-06
-5.08275e-05
7.33583e-06
-5.18944e-05
5.8187e-06
-5.27016e-05
3.37064e-06
-5.34308e-05
2.02126e-06
-5.40833e-05
1.68033e-06
-5.46615e-05
1.77124e-06
-5.50901e-05
2.27123e-06
-5.5452e-05
2.64566e-06
-5.58753e-05
2.56389e-06
-5.626e-05
1.66769e-06
-5.66537e-05
7.1334e-07
-5.70301e-05
5.21537e-07
-5.7376e-05
6.44613e-07
-5.75986e-05
1.22348e-06
-5.79553e-05
1.75471e-06
-5.83876e-05
1.77787e-06
-5.88686e-05
1.35765e-06
-5.92349e-05
3.56461e-07
-5.94271e-05
-6.34612e-07
-5.94838e-05
-1.26539e-06
-5.95224e-05
-1.51946e-06
-5.95914e-05
-1.59358e-06
-5.96052e-05
-1.47861e-06
-5.94431e-05
-1.01735e-06
-5.89515e-05
-8.20331e-07
-5.79214e-05
-1.25348e-06
-5.64162e-05
-2.03112e-06
-5.49596e-05
-2.17163e-06
-5.39233e-05
-1.61586e-06
-5.34411e-05