/*--------------------------------*- C++ -*----------------------------------*\
| =========                 |                                                 |
| \\      /  F ield         | OpenFOAM: The Open Source CFD Toolbox           |
|  \\    /   O peration     | Version:  v2006                                 |
|   \\  /    A nd           | Website:  www.openfoam.com                      |
|    \\/     M anipulation  |                                                 |
\*---------------------------------------------------------------------------*/
FoamFile
{
    version     2.0;
    format      ascii;
    class       volScalarField;
    location    "9.1";
    object      k;
}
// * * * * * * * * * * * * * * * * * * * * * * * * * * * * * * * * * * * * * //

dimensions      [0 2 -2 0 0 0 0];


internalField   nonuniform List<scalar> 
33000
(
1.6498e-08
2.53706e-08
3.63245e-08
4.22435e-08
4.03202e-08
3.53209e-08
3.10529e-08
2.88098e-08
2.77573e-08
2.74639e-08
2.80109e-08
2.90849e-08
3.04384e-08
3.1853e-08
3.32645e-08
3.46679e-08
3.61204e-08
3.76684e-08
3.94167e-08
4.17129e-08
4.532e-08
5.19886e-08
6.50029e-08
8.83445e-08
1.23694e-07
1.69856e-07
2.27188e-07
2.87892e-07
3.42213e-07
3.82212e-07
4.1133e-07
4.34408e-07
4.57957e-07
4.93637e-07
5.76508e-07
7.55842e-07
1.03726e-06
1.33814e-06
1.54766e-06
1.65836e-06
1.70518e-06
1.72176e-06
1.72405e-06
1.71181e-06
1.68292e-06
1.65358e-06
1.62854e-06
1.61613e-06
1.60514e-06
1.58326e-06
1.54548e-06
1.49998e-06
1.44756e-06
1.40568e-06
1.37901e-06
1.37582e-06
1.39861e-06
1.44366e-06
1.49449e-06
1.53668e-06
1.56047e-06
1.55592e-06
1.52001e-06
1.45731e-06
1.37291e-06
1.27283e-06
1.15885e-06
1.02813e-06
9.14856e-07
8.30459e-07
7.67985e-07
7.19458e-07
6.80932e-07
6.50826e-07
6.28491e-07
6.20386e-07
6.22924e-07
6.4342e-07
6.54885e-07
6.75773e-07
7.00128e-07
7.40808e-07
7.90226e-07
8.48883e-07
9.18722e-07
9.73075e-07
1.01426e-06
1.04026e-06
1.05034e-06
1.04465e-06
1.02128e-06
9.81847e-07
9.19223e-07
8.49112e-07
7.70886e-07
6.98381e-07
6.45045e-07
6.11187e-07
5.98873e-07
6.08741e-07
6.37507e-07
6.55323e-07
6.61886e-07
6.6526e-07
6.72973e-07
6.80708e-07
6.84419e-07
6.82099e-07
6.74888e-07
6.64056e-07
6.51056e-07
6.36098e-07
6.16874e-07
5.90753e-07
5.58578e-07
5.27751e-07
5.08415e-07
5.11298e-07
5.29131e-07
5.36027e-07
5.39144e-07
5.40536e-07
5.4503e-07
5.51413e-07
5.56935e-07
5.60828e-07
5.63453e-07
5.65049e-07
5.66995e-07
5.69295e-07
5.7172e-07
5.73793e-07
5.75098e-07
5.75586e-07
5.75979e-07
5.76727e-07
5.77975e-07
5.79297e-07
5.80541e-07
5.81729e-07
5.83054e-07
5.84519e-07
5.8581e-07
5.86629e-07
5.86873e-07
5.86861e-07
5.86935e-07
5.87134e-07
5.87051e-07
5.86131e-07
5.84326e-07
5.82102e-07
5.79823e-07
5.77428e-07
5.7466e-07
5.71413e-07
5.67728e-07
5.63726e-07
5.59497e-07
5.55048e-07
5.50347e-07
5.4535e-07
5.40014e-07
5.34373e-07
5.28609e-07
5.2275e-07
5.16523e-07
5.09822e-07
5.02962e-07
4.96303e-07
4.89811e-07
4.83113e-07
4.76007e-07
4.68785e-07
4.61887e-07
4.55554e-07
4.49769e-07
4.44238e-07
4.38567e-07
4.32615e-07
4.26508e-07
4.2047e-07
4.14754e-07
4.09549e-07
4.04815e-07
4.0033e-07
3.95738e-07
3.90891e-07
3.86206e-07
3.82031e-07
3.7833e-07
3.748e-07
3.71154e-07
3.674e-07
3.63708e-07
3.60417e-07
3.57827e-07
3.56045e-07
3.54813e-07
3.5353e-07
3.52051e-07
3.50588e-07
3.49611e-07
3.49277e-07
3.49353e-07
3.49531e-07
3.49602e-07
3.49649e-07
3.50138e-07
3.51228e-07
3.5249e-07
3.53225e-07
3.53698e-07
3.54638e-07
3.56009e-07
3.57733e-07
3.59826e-07
3.61937e-07
3.63596e-07
3.65027e-07
3.66574e-07
3.68476e-07
3.70645e-07
3.7305e-07
3.75505e-07
3.77547e-07
3.79267e-07
3.80846e-07
3.82484e-07
3.84286e-07
3.86222e-07
3.88177e-07
3.89639e-07
3.9069e-07
3.91579e-07
3.92405e-07
3.93263e-07
3.94059e-07
3.94684e-07
3.95124e-07
3.95428e-07
3.95534e-07
3.95298e-07
3.94711e-07
3.93939e-07
3.93167e-07
3.92376e-07
3.91603e-07
3.90646e-07
3.89063e-07
3.87246e-07
3.85539e-07
3.83826e-07
3.82056e-07
3.80205e-07
3.78058e-07
3.75678e-07
3.73217e-07
3.70723e-07
3.68208e-07
3.65578e-07
3.62821e-07
3.59929e-07
3.56931e-07
3.53927e-07
3.50969e-07
3.48016e-07
3.44879e-07
3.41486e-07
3.38013e-07
3.34602e-07
3.31218e-07
3.27811e-07
3.24401e-07
3.20977e-07
3.17405e-07
3.13702e-07
3.09969e-07
3.06258e-07
3.02557e-07
2.98853e-07
2.95164e-07
2.91499e-07
2.87764e-07
2.83897e-07
2.80017e-07
2.76185e-07
2.72368e-07
2.68533e-07
2.64673e-07
2.60764e-07
2.56746e-07
2.52622e-07
2.48406e-07
2.44096e-07
2.39694e-07
2.35239e-07
2.30752e-07
2.2623e-07
2.21696e-07
2.17158e-07
2.12633e-07
2.08125e-07
2.03613e-07
1.99065e-07
1.94486e-07
1.89913e-07
1.8539e-07
1.80953e-07
1.76633e-07
1.72461e-07
1.68469e-07
1.64675e-07
1.61076e-07
1.57659e-07
1.54429e-07
1.514e-07
1.48581e-07
1.45977e-07
1.43586e-07
1.41413e-07
1.39458e-07
1.37719e-07
1.3619e-07
1.34859e-07
1.33714e-07
1.32749e-07
1.31953e-07
1.31308e-07
1.30793e-07
1.30394e-07
1.30098e-07
1.29897e-07
1.2978e-07
1.29729e-07
1.29727e-07
1.2976e-07
1.29816e-07
1.29879e-07
1.29935e-07
1.29975e-07
1.29993e-07
1.29986e-07
1.29956e-07
1.29901e-07
1.29819e-07
1.29709e-07
1.29568e-07
1.29398e-07
1.29198e-07
1.28966e-07
1.28699e-07
1.28394e-07
1.2805e-07
1.27668e-07
1.27247e-07
1.26787e-07
1.26289e-07
1.25755e-07
1.25184e-07
1.24578e-07
1.23938e-07
1.23265e-07
1.22561e-07
1.21826e-07
1.21064e-07
1.20275e-07
1.19461e-07
1.18622e-07
1.17763e-07
1.16884e-07
1.15985e-07
1.15065e-07
1.14123e-07
1.13161e-07
1.1218e-07
1.11181e-07
1.10163e-07
1.09128e-07
1.08074e-07
1.07003e-07
1.05911e-07
1.04801e-07
1.03678e-07
1.02544e-07
1.01399e-07
1.00248e-07
9.90879e-08
9.79236e-08
9.6756e-08
9.55899e-08
9.44241e-08
9.32591e-08
9.20962e-08
9.09397e-08
8.97935e-08
8.86583e-08
8.7538e-08
8.64316e-08
8.5339e-08
8.42586e-08
8.31966e-08
8.21536e-08
8.1135e-08
8.01446e-08
7.91821e-08
7.8245e-08
7.73314e-08
7.64498e-08
7.56131e-08
7.48023e-08
7.40281e-08
7.32599e-08
7.25255e-08
7.18165e-08
7.1123e-08
7.04614e-08
6.97862e-08
6.90797e-08
6.84714e-08
6.79111e-08
6.72638e-08
6.68075e-08
6.58957e-08
6.47744e-08
6.43434e-08
6.40338e-08
6.29753e-08
6.41203e-08
6.54392e-08
6.92689e-08
7.03469e-08
7.23881e-08
7.3145e-08
7.40169e-08
7.42494e-08
7.45033e-08
7.45057e-08
7.45901e-08
7.44751e-08
7.44959e-08
7.44853e-08
7.39831e-08
7.36888e-08
7.32233e-08
7.13494e-08
6.99408e-08
6.7753e-08
6.68756e-08
6.51775e-08
6.57292e-08
6.61754e-08
6.68552e-08
6.72531e-08
6.77209e-08
6.79864e-08
6.82433e-08
6.80024e-08
6.79343e-08
6.78282e-08
6.73188e-08
6.77426e-08
6.65886e-08
6.47898e-08
6.50007e-08
6.43689e-08
6.16568e-08
6.46708e-08
6.78029e-08
8.07e-08
8.43758e-08
9.05964e-08
9.51426e-08
1.01606e-07
1.08211e-07
1.15272e-07
1.21616e-07
1.272e-07
1.31998e-07
1.3623e-07
1.39867e-07
1.429e-07
1.45465e-07
1.47635e-07
1.49543e-07
1.51302e-07
1.52883e-07
1.54254e-07
1.55484e-07
1.56654e-07
1.5773e-07
1.58663e-07
1.59505e-07
1.60349e-07
1.61205e-07
1.62012e-07
1.62737e-07
1.63376e-07
1.63958e-07
1.64497e-07
1.64978e-07
1.65432e-07
1.65887e-07
1.66299e-07
1.66603e-07
1.66785e-07
1.6688e-07
1.66943e-07
1.67015e-07
1.67091e-07
1.67162e-07
1.67195e-07
1.67186e-07
1.67158e-07
1.67102e-07
1.67008e-07
1.66901e-07
1.6682e-07
1.66768e-07
1.66718e-07
1.66641e-07
1.66514e-07
1.66337e-07
1.66123e-07
1.65887e-07
1.65642e-07
1.65398e-07
1.65154e-07
1.64906e-07
1.64652e-07
1.64385e-07
1.64107e-07
1.6383e-07
1.63558e-07
1.63302e-07
1.63034e-07
1.62777e-07
1.62473e-07
1.62238e-07
1.61948e-07
1.61767e-07
1.61465e-07
1.61239e-07
1.61146e-07
1.60845e-07
1.59731e-07
1.59836e-07
1.50775e-07
1.33089e-07
7.60852e-08
1.29213e-08
1.80495e-08
2.43391e-08
2.65489e-08
2.4525e-08
2.2592e-08
1.91823e-08
1.73914e-08
1.65929e-08
1.6498e-08
1.71113e-08
1.83556e-08
2.02126e-08
2.27756e-08
2.61306e-08
3.0026e-08
3.38822e-08
3.69794e-08
3.93398e-08
4.20375e-08
4.74452e-08
5.91965e-08
8.23651e-08
1.2555e-07
1.9784e-07
3.05976e-07
4.39699e-07
5.64222e-07
6.63727e-07
7.27315e-07
8.08409e-07
9.71867e-07
1.14717e-06
1.26324e-06
1.33907e-06
1.43006e-06
1.50071e-06
1.4969e-06
1.37312e-06
1.10977e-06
8.09503e-07
6.34295e-07
6.03176e-07
6.21953e-07
5.73055e-07
4.40477e-07
3.42301e-07
3.28458e-07
3.78768e-07
4.18608e-07
3.77457e-07
2.7223e-07
1.85982e-07
1.3522e-07
1.09561e-07
1.05124e-07
1.21394e-07
1.66166e-07
2.40987e-07
3.17951e-07
3.56568e-07
3.60314e-07
3.39304e-07
3.02204e-07
2.51615e-07
1.88474e-07
1.28845e-07
1.03601e-07
1.01001e-07
1.09898e-07
1.28832e-07
1.59036e-07
1.96596e-07
2.31246e-07
2.55691e-07
2.77539e-07
3.04174e-07
3.91755e-07
4.08126e-07
3.93217e-07
4.67138e-07
5.36413e-07
5.07198e-07
5.06057e-07
4.50984e-07
4.24425e-07
3.81569e-07
3.31936e-07
2.56672e-07
1.92446e-07
1.49107e-07
1.27763e-07
1.24328e-07
1.3463e-07
1.53293e-07
1.79302e-07
2.10118e-07
2.44525e-07
2.71845e-07
3.04495e-07
3.12078e-07
2.87058e-07
2.38274e-07
1.82903e-07
1.51328e-07
1.18336e-07
8.35151e-08
6.36016e-08
5.69892e-08
5.44065e-08
5.30429e-08
5.41155e-08
5.3619e-08
5.31138e-08
5.41014e-08
5.4761e-08
5.34253e-08
5.10386e-08
5.36583e-08
5.5695e-08
5.65008e-08
5.50005e-08
5.87433e-08
5.5211e-08
4.95629e-08
4.84486e-08
4.7061e-08
4.67383e-08
4.76058e-08
4.71946e-08
4.65847e-08
4.59487e-08
4.46e-08
4.44917e-08
4.47307e-08
4.49235e-08
4.46687e-08
4.41757e-08
4.39788e-08
4.3931e-08
4.39613e-08
4.36121e-08
4.30015e-08
4.21819e-08
4.16315e-08
4.14342e-08
4.14392e-08
4.13435e-08
4.07565e-08
3.998e-08
3.96346e-08
3.95704e-08
3.95083e-08
3.9284e-08
3.90036e-08
3.87272e-08
3.85221e-08
3.83879e-08
3.82563e-08
3.80915e-08
3.79065e-08
3.77273e-08
3.75687e-08
3.74878e-08
3.74559e-08
3.73081e-08
3.70384e-08
3.68285e-08
3.67574e-08
3.67469e-08
3.6629e-08
3.63322e-08
3.60093e-08
3.57623e-08
3.56202e-08
3.55931e-08
3.55642e-08
3.54001e-08
3.5102e-08
3.4711e-08
3.42873e-08
3.39384e-08
3.3678e-08
3.34914e-08
3.33305e-08
3.30897e-08
3.27278e-08
3.23232e-08
3.19851e-08
3.17409e-08
3.15271e-08
3.12624e-08
3.09039e-08
3.0476e-08
3.0041e-08
2.96686e-08
2.93948e-08
2.91815e-08
2.89296e-08
2.85549e-08
2.80765e-08
2.75948e-08
2.71924e-08
2.68604e-08
2.65367e-08
2.61647e-08
2.57394e-08
2.53231e-08
2.4983e-08
2.46896e-08
2.4326e-08
2.38562e-08
2.33717e-08
2.29675e-08
2.26672e-08
2.24302e-08
2.21777e-08
2.18365e-08
2.1413e-08
2.09862e-08
2.06225e-08
2.0352e-08
2.01406e-08
1.99293e-08
1.96653e-08
1.93398e-08
1.89996e-08
1.86959e-08
1.8466e-08
1.8296e-08
1.81339e-08
1.79326e-08
1.76788e-08
1.74152e-08
1.71871e-08
1.70079e-08
1.6868e-08
1.67566e-08
1.66601e-08
1.65686e-08
1.64763e-08
1.63671e-08
1.6249e-08
1.6154e-08
1.61094e-08
1.61372e-08
1.62187e-08
1.62731e-08
1.62626e-08
1.62312e-08
1.6238e-08
1.63081e-08
1.64197e-08
1.65259e-08
1.65989e-08
1.66423e-08
1.66866e-08
1.67606e-08
1.68574e-08
1.69545e-08
1.70335e-08
1.70821e-08
1.71162e-08
1.71747e-08
1.72819e-08
1.74234e-08
1.75233e-08
1.75367e-08
1.75117e-08
1.75043e-08
1.7528e-08
1.75818e-08
1.76613e-08
1.77433e-08
1.77857e-08
1.77737e-08
1.77357e-08
1.77032e-08
1.76805e-08
1.76629e-08
1.76683e-08
1.77093e-08
1.77373e-08
1.77e-08
1.76236e-08
1.75589e-08
1.75135e-08
1.74758e-08
1.74495e-08
1.74299e-08
1.73914e-08
1.73205e-08
1.72322e-08
1.71444e-08
1.7059e-08
1.69836e-08
1.69167e-08
1.68394e-08
1.67426e-08
1.66311e-08
1.6511e-08
1.63987e-08
1.63018e-08
1.62006e-08
1.60815e-08
1.59453e-08
1.58089e-08
1.56802e-08
1.55529e-08
1.54201e-08
1.52833e-08
1.51551e-08
1.50458e-08
1.49481e-08
1.48452e-08
1.47357e-08
1.46331e-08
1.45434e-08
1.44658e-08
1.43977e-08
1.43377e-08
1.42861e-08
1.42442e-08
1.42139e-08
1.41916e-08
1.41732e-08
1.41639e-08
1.41677e-08
1.41799e-08
1.41926e-08
1.42046e-08
1.42219e-08
1.42506e-08
1.42926e-08
1.43372e-08
1.43699e-08
1.43898e-08
1.44106e-08
1.44358e-08
1.44621e-08
1.44861e-08
1.4505e-08
1.4518e-08
1.45274e-08
1.45348e-08
1.45347e-08
1.45269e-08
1.45125e-08
1.44941e-08
1.44743e-08
1.44533e-08
1.44276e-08
1.4394e-08
1.4354e-08
1.43123e-08
1.42704e-08
1.42273e-08
1.41828e-08
1.41334e-08
1.40797e-08
1.4025e-08
1.39701e-08
1.39143e-08
1.38599e-08
1.38089e-08
1.37566e-08
1.36977e-08
1.36306e-08
1.35626e-08
1.35031e-08
1.34498e-08
1.3389e-08
1.3319e-08
1.3248e-08
1.31827e-08
1.31222e-08
1.3063e-08
1.30041e-08
1.29489e-08
1.28924e-08
1.2827e-08
1.27547e-08
1.2691e-08
1.26338e-08
1.25776e-08
1.2521e-08
1.24633e-08
1.24031e-08
1.23427e-08
1.22882e-08
1.22364e-08
1.21817e-08
1.21217e-08
1.20649e-08
1.20112e-08
1.19593e-08
1.19092e-08
1.18657e-08
1.18208e-08
1.17719e-08
1.17224e-08
1.16728e-08
1.163e-08
1.15907e-08
1.1564e-08
1.15284e-08
1.14927e-08
1.14413e-08
1.14164e-08
1.13842e-08
1.13545e-08
1.13178e-08
1.12701e-08
1.12443e-08
1.11947e-08
1.11686e-08
1.11484e-08
1.10899e-08
1.10869e-08
1.11062e-08
1.10311e-08
1.10751e-08
1.11847e-08
1.10661e-08
1.12264e-08
1.16306e-08
1.16024e-08
1.21359e-08
1.2742e-08
1.33841e-08
1.29957e-08
1.20317e-08
1.18782e-08
1.15391e-08
1.1443e-08
1.13111e-08
1.12422e-08
1.11586e-08
1.10883e-08
1.10905e-08
1.12953e-08
1.12629e-08
1.15216e-08
1.17403e-08
1.1339e-08
1.13756e-08
1.14644e-08
1.13334e-08
1.08966e-08
1.08441e-08
1.08262e-08
1.07414e-08
1.06979e-08
1.06703e-08
1.06839e-08
1.07012e-08
1.07309e-08
1.0761e-08
1.08041e-08
1.08972e-08
1.10953e-08
1.16278e-08
1.20048e-08
1.25629e-08
1.32958e-08
1.3199e-08
1.41783e-08
1.5204e-08
1.87115e-08
1.83147e-08
1.33599e-08
1.21491e-08
1.17754e-08
1.17412e-08
1.16845e-08
1.1684e-08
1.17535e-08
1.17941e-08
1.18381e-08
1.1981e-08
1.21199e-08
1.21909e-08
1.22508e-08
1.22786e-08
1.23578e-08
1.24996e-08
1.26006e-08
1.2618e-08
1.2661e-08
1.27375e-08
1.27929e-08
1.27802e-08
1.27759e-08
1.28552e-08
1.29848e-08
1.30522e-08
1.30769e-08
1.3065e-08
1.30722e-08
1.30878e-08
1.30922e-08
1.31384e-08
1.32201e-08
1.32838e-08
1.32743e-08
1.32019e-08
1.31197e-08
1.30656e-08
1.30625e-08
1.30769e-08
1.31097e-08
1.31095e-08
1.31021e-08
1.3114e-08
1.31071e-08
1.30811e-08
1.30684e-08
1.30881e-08
1.3129e-08
1.31744e-08
1.32072e-08
1.32159e-08
1.32046e-08
1.31826e-08
1.31588e-08
1.31416e-08
1.31311e-08
1.31255e-08
1.31214e-08
1.31154e-08
1.3105e-08
1.30918e-08
1.30816e-08
1.30762e-08
1.30792e-08
1.30751e-08
1.30688e-08
1.30489e-08
1.3045e-08
1.3043e-08
1.30403e-08
1.30344e-08
1.30379e-08
1.30456e-08
1.3035e-08
1.30221e-08
1.30055e-08
1.28904e-08
1.24369e-08
1.12784e-08
1.18201e-08
1.51179e-08
1.87071e-08
1.97779e-08
1.87068e-08
1.55046e-08
1.37531e-08
1.29397e-08
1.2703e-08
1.29765e-08
1.38866e-08
1.56165e-08
1.85945e-08
2.33473e-08
3.02262e-08
3.84858e-08
4.63985e-08
5.22692e-08
5.67762e-08
6.29858e-08
7.63346e-08
1.01458e-07
1.46926e-07
2.29021e-07
3.78736e-07
6.31465e-07
9.71181e-07
1.30033e-06
1.53688e-06
1.70944e-06
1.88009e-06
1.94795e-06
1.88678e-06
1.79293e-06
1.68818e-06
1.60353e-06
1.46389e-06
1.24879e-06
9.89263e-07
6.85388e-07
4.35226e-07
2.95556e-07
2.53292e-07
2.45308e-07
2.19971e-07
1.67156e-07
1.22893e-07
1.10792e-07
1.23718e-07
1.33813e-07
1.21275e-07
8.9601e-08
6.18736e-08
4.54505e-08
3.8369e-08
3.78657e-08
4.26001e-08
5.22751e-08
6.593e-08
7.96279e-08
8.58819e-08
8.8081e-08
9.10915e-08
9.04229e-08
8.12534e-08
6.60721e-08
5.22368e-08
4.53547e-08
4.29178e-08
4.45783e-08
5.06947e-08
6.07774e-08
7.419e-08
8.73453e-08
9.69161e-08
1.04892e-07
1.19662e-07
1.44963e-07
1.78037e-07
2.06104e-07
2.68242e-07
3.01741e-07
3.25891e-07
3.98933e-07
4.6191e-07
4.42173e-07
4.12112e-07
3.52678e-07
2.90376e-07
2.25467e-07
1.69649e-07
1.28522e-07
9.95125e-08
8.42629e-08
8.02365e-08
8.36057e-08
9.39397e-08
1.02524e-07
1.06646e-07
1.09124e-07
1.14221e-07
1.07384e-07
9.67353e-08
8.31229e-08
7.01694e-08
5.78675e-08
4.55126e-08
3.59739e-08
2.9489e-08
2.46594e-08
2.05404e-08
1.81699e-08
1.68971e-08
1.65396e-08
1.70923e-08
1.77352e-08
1.79681e-08
1.77014e-08
1.71025e-08
1.63572e-08
1.62496e-08
1.65608e-08
1.69483e-08
1.6315e-08
1.54492e-08
1.52548e-08
1.47123e-08
1.42483e-08
1.41362e-08
1.39587e-08
1.38298e-08
1.37664e-08
1.36307e-08
1.36121e-08
1.36597e-08
1.36991e-08
1.3686e-08
1.36512e-08
1.36496e-08
1.36541e-08
1.36705e-08
1.36574e-08
1.3615e-08
1.35591e-08
1.35308e-08
1.35361e-08
1.35529e-08
1.35572e-08
1.35297e-08
1.34994e-08
1.35027e-08
1.35266e-08
1.35464e-08
1.35524e-08
1.35621e-08
1.35806e-08
1.36038e-08
1.36251e-08
1.36426e-08
1.36559e-08
1.36669e-08
1.36809e-08
1.36984e-08
1.37213e-08
1.37455e-08
1.37584e-08
1.37566e-08
1.37534e-08
1.37632e-08
1.37792e-08
1.37816e-08
1.37606e-08
1.37235e-08
1.36878e-08
1.36637e-08
1.36512e-08
1.36382e-08
1.36056e-08
1.35468e-08
1.34649e-08
1.33693e-08
1.32779e-08
1.32001e-08
1.31367e-08
1.30798e-08
1.30132e-08
1.29267e-08
1.28268e-08
1.27311e-08
1.26496e-08
1.25784e-08
1.25078e-08
1.24287e-08
1.2339e-08
1.22454e-08
1.21594e-08
1.2089e-08
1.20307e-08
1.19708e-08
1.18981e-08
1.18145e-08
1.1732e-08
1.16607e-08
1.15985e-08
1.15378e-08
1.14734e-08
1.14071e-08
1.13458e-08
1.12934e-08
1.12447e-08
1.11886e-08
1.11245e-08
1.10614e-08
1.10073e-08
1.09643e-08
1.09284e-08
1.08929e-08
1.08516e-08
1.08046e-08
1.07581e-08
1.07172e-08
1.06845e-08
1.06575e-08
1.06323e-08
1.06056e-08
1.05765e-08
1.05471e-08
1.05204e-08
1.04986e-08
1.04813e-08
1.04656e-08
1.04489e-08
1.04303e-08
1.04118e-08
1.03959e-08
1.03837e-08
1.03744e-08
1.03672e-08
1.03607e-08
1.03537e-08
1.03469e-08
1.03402e-08
1.03341e-08
1.03291e-08
1.0326e-08
1.03254e-08
1.03271e-08
1.0329e-08
1.03293e-08
1.03281e-08
1.03276e-08
1.03293e-08
1.03325e-08
1.03373e-08
1.03428e-08
1.0347e-08
1.03511e-08
1.0356e-08
1.03609e-08
1.03663e-08
1.0372e-08
1.03771e-08
1.03813e-08
1.03866e-08
1.03946e-08
1.04041e-08
1.0411e-08
1.04133e-08
1.04138e-08
1.04155e-08
1.04191e-08
1.04246e-08
1.04313e-08
1.04378e-08
1.04425e-08
1.04449e-08
1.04459e-08
1.04468e-08
1.04479e-08
1.04494e-08
1.04529e-08
1.04587e-08
1.04635e-08
1.04643e-08
1.04627e-08
1.04621e-08
1.04628e-08
1.04641e-08
1.04659e-08
1.04679e-08
1.04688e-08
1.04681e-08
1.04666e-08
1.04652e-08
1.04636e-08
1.04624e-08
1.04616e-08
1.04607e-08
1.04591e-08
1.04563e-08
1.04521e-08
1.04478e-08
1.04447e-08
1.04419e-08
1.04379e-08
1.0432e-08
1.04254e-08
1.04194e-08
1.04139e-08
1.04077e-08
1.04006e-08
1.03938e-08
1.03882e-08
1.03836e-08
1.03783e-08
1.03718e-08
1.03655e-08
1.03601e-08
1.03556e-08
1.03519e-08
1.03486e-08
1.03456e-08
1.03431e-08
1.03414e-08
1.03402e-08
1.03395e-08
1.03396e-08
1.03405e-08
1.03417e-08
1.03426e-08
1.03436e-08
1.03453e-08
1.03478e-08
1.0351e-08
1.0354e-08
1.03559e-08
1.03567e-08
1.03576e-08
1.03589e-08
1.03603e-08
1.03616e-08
1.03626e-08
1.03632e-08
1.03635e-08
1.03636e-08
1.03627e-08
1.03611e-08
1.03589e-08
1.03566e-08
1.03542e-08
1.03518e-08
1.03488e-08
1.03451e-08
1.0341e-08
1.03367e-08
1.03326e-08
1.03284e-08
1.03243e-08
1.03197e-08
1.03149e-08
1.03101e-08
1.03055e-08
1.0301e-08
1.02966e-08
1.02925e-08
1.02884e-08
1.02839e-08
1.0279e-08
1.02742e-08
1.02699e-08
1.02659e-08
1.02615e-08
1.02562e-08
1.02505e-08
1.02452e-08
1.02404e-08
1.02358e-08
1.02312e-08
1.02266e-08
1.02219e-08
1.02171e-08
1.02122e-08
1.02076e-08
1.02034e-08
1.01995e-08
1.01953e-08
1.01911e-08
1.01869e-08
1.0183e-08
1.01792e-08
1.01755e-08
1.01717e-08
1.0168e-08
1.01645e-08
1.01612e-08
1.01579e-08
1.01546e-08
1.01514e-08
1.01485e-08
1.01456e-08
1.0143e-08
1.014e-08
1.01372e-08
1.01348e-08
1.01332e-08
1.0131e-08
1.01295e-08
1.01273e-08
1.01271e-08
1.01238e-08
1.01218e-08
1.01209e-08
1.0119e-08
1.01212e-08
1.01179e-08
1.0123e-08
1.01195e-08
1.01193e-08
1.01222e-08
1.01235e-08
1.01209e-08
1.01237e-08
1.01315e-08
1.01289e-08
1.01437e-08
1.01682e-08
1.01815e-08
1.01955e-08
1.02021e-08
1.02274e-08
1.0189e-08
1.01477e-08
1.01373e-08
1.01248e-08
1.01183e-08
1.0114e-08
1.01132e-08
1.0116e-08
1.01172e-08
1.01222e-08
1.01297e-08
1.01218e-08
1.01209e-08
1.01209e-08
1.01025e-08
1.00915e-08
1.00861e-08
1.00875e-08
1.00831e-08
1.00852e-08
1.0084e-08
1.00842e-08
1.00833e-08
1.00861e-08
1.00871e-08
1.00888e-08
1.00922e-08
1.00992e-08
1.01163e-08
1.01417e-08
1.01794e-08
1.02368e-08
1.02847e-08
1.0365e-08
1.0439e-08
1.05434e-08
1.05859e-08
1.05213e-08
1.08345e-08
1.05326e-08
1.02168e-08
1.01923e-08
1.01747e-08
1.01648e-08
1.01561e-08
1.01492e-08
1.01415e-08
1.01327e-08
1.01268e-08
1.01248e-08
1.01239e-08
1.0123e-08
1.0123e-08
1.01235e-08
1.01267e-08
1.0131e-08
1.01339e-08
1.01353e-08
1.01379e-08
1.01414e-08
1.01439e-08
1.01451e-08
1.01471e-08
1.01512e-08
1.01562e-08
1.01597e-08
1.01622e-08
1.01638e-08
1.01652e-08
1.01667e-08
1.01684e-08
1.01714e-08
1.01751e-08
1.01779e-08
1.01779e-08
1.01759e-08
1.01733e-08
1.01717e-08
1.01717e-08
1.01723e-08
1.01734e-08
1.01738e-08
1.0174e-08
1.01749e-08
1.01755e-08
1.01755e-08
1.01759e-08
1.01772e-08
1.01791e-08
1.01811e-08
1.01827e-08
1.01835e-08
1.01835e-08
1.01831e-08
1.01826e-08
1.01821e-08
1.01818e-08
1.01818e-08
1.01818e-08
1.01818e-08
1.01816e-08
1.01814e-08
1.01813e-08
1.01814e-08
1.01818e-08
1.01819e-08
1.01818e-08
1.01815e-08
1.01815e-08
1.01816e-08
1.01816e-08
1.01815e-08
1.0182e-08
1.01826e-08
1.0181e-08
1.01815e-08
1.01809e-08
1.01759e-08
1.01521e-08
1.00846e-08
1.10682e-08
1.29198e-08
1.49138e-08
1.55294e-08
1.42234e-08
1.28299e-08
1.20588e-08
1.17357e-08
1.17633e-08
1.22231e-08
1.34113e-08
1.57969e-08
2.00663e-08
2.70934e-08
3.77883e-08
5.16772e-08
6.62924e-08
7.82997e-08
9.15966e-08
1.18438e-07
1.51575e-07
1.9946e-07
2.7395e-07
3.83859e-07
5.36882e-07
7.33123e-07
1.01389e-06
1.26655e-06
1.31006e-06
1.31728e-06
1.34472e-06
1.35636e-06
1.34107e-06
1.31255e-06
1.24802e-06
1.12799e-06
9.62646e-07
7.90645e-07
5.78138e-07
3.61815e-07
2.15659e-07
1.3885e-07
1.11705e-07
1.02425e-07
9.07426e-08
7.01869e-08
5.3749e-08
4.77404e-08
5.034e-08
5.2571e-08
4.87511e-08
3.88168e-08
2.96572e-08
2.41523e-08
2.15775e-08
2.10353e-08
2.16903e-08
2.34175e-08
2.55905e-08
2.66478e-08
2.70601e-08
2.86861e-08
3.23201e-08
3.52297e-08
3.47801e-08
3.14029e-08
2.71403e-08
2.36426e-08
2.2376e-08
2.2844e-08
2.46155e-08
2.75555e-08
3.17505e-08
3.82391e-08
4.62378e-08
5.56526e-08
6.68593e-08
7.93543e-08
9.88247e-08
1.21219e-07
1.53419e-07
1.88593e-07
2.2123e-07
2.73765e-07
3.10053e-07
3.18944e-07
3.35962e-07
3.78492e-07
3.89867e-07
3.2358e-07
2.7115e-07
1.85566e-07
1.39151e-07
1.0252e-07
7.84885e-08
6.31385e-08
5.68724e-08
5.86118e-08
5.99849e-08
5.95918e-08
5.61616e-08
5.05205e-08
4.4769e-08
3.88308e-08
3.35166e-08
2.948e-08
2.60581e-08
2.36933e-08
2.21295e-08
2.03665e-08
1.858e-08
1.70209e-08
1.56863e-08
1.44911e-08
1.35122e-08
1.27592e-08
1.22648e-08
1.21128e-08
1.20017e-08
1.18466e-08
1.17217e-08
1.16287e-08
1.15124e-08
1.14647e-08
1.14529e-08
1.14167e-08
1.1257e-08
1.10839e-08
1.09875e-08
1.08698e-08
1.07744e-08
1.07262e-08
1.06847e-08
1.06712e-08
1.06719e-08
1.06761e-08
1.06746e-08
1.06672e-08
1.0667e-08
1.06658e-08
1.06696e-08
1.06713e-08
1.06686e-08
1.06647e-08
1.06649e-08
1.06684e-08
1.0673e-08
1.06757e-08
1.06749e-08
1.06745e-08
1.06782e-08
1.06846e-08
1.06905e-08
1.06939e-08
1.06972e-08
1.0702e-08
1.07086e-08
1.07155e-08
1.07215e-08
1.0726e-08
1.07289e-08
1.07313e-08
1.07343e-08
1.07387e-08
1.07436e-08
1.07467e-08
1.07466e-08
1.07443e-08
1.0743e-08
1.07431e-08
1.07416e-08
1.0736e-08
1.07264e-08
1.07154e-08
1.07054e-08
1.06972e-08
1.06897e-08
1.06796e-08
1.06645e-08
1.06446e-08
1.06218e-08
1.05995e-08
1.05798e-08
1.05627e-08
1.05471e-08
1.05311e-08
1.05127e-08
1.0492e-08
1.0471e-08
1.04518e-08
1.0435e-08
1.04198e-08
1.04047e-08
1.03888e-08
1.03723e-08
1.03563e-08
1.03422e-08
1.03301e-08
1.03184e-08
1.03061e-08
1.02931e-08
1.02802e-08
1.02685e-08
1.02579e-08
1.02478e-08
1.02379e-08
1.02284e-08
1.02197e-08
1.02118e-08
1.02042e-08
1.01962e-08
1.01879e-08
1.01801e-08
1.01731e-08
1.01672e-08
1.0162e-08
1.0157e-08
1.01518e-08
1.01464e-08
1.01412e-08
1.01365e-08
1.01324e-08
1.01288e-08
1.01255e-08
1.01224e-08
1.01194e-08
1.01164e-08
1.01136e-08
1.01111e-08
1.01089e-08
1.01069e-08
1.0105e-08
1.01032e-08
1.01014e-08
1.00998e-08
1.00985e-08
1.00974e-08
1.00964e-08
1.00955e-08
1.00947e-08
1.00939e-08
1.00931e-08
1.00925e-08
1.00921e-08
1.00917e-08
1.00915e-08
1.00914e-08
1.00912e-08
1.00911e-08
1.0091e-08
1.00911e-08
1.00912e-08
1.00914e-08
1.00915e-08
1.00916e-08
1.00918e-08
1.0092e-08
1.00924e-08
1.00927e-08
1.00928e-08
1.00929e-08
1.0093e-08
1.00932e-08
1.00936e-08
1.00941e-08
1.00947e-08
1.00951e-08
1.00952e-08
1.00953e-08
1.00955e-08
1.00959e-08
1.00964e-08
1.00968e-08
1.00971e-08
1.00975e-08
1.00978e-08
1.00981e-08
1.00984e-08
1.00985e-08
1.00987e-08
1.0099e-08
1.00995e-08
1.00999e-08
1.01001e-08
1.01002e-08
1.01004e-08
1.01006e-08
1.01008e-08
1.0101e-08
1.01012e-08
1.01014e-08
1.01016e-08
1.01017e-08
1.01018e-08
1.01017e-08
1.01017e-08
1.01017e-08
1.01018e-08
1.01018e-08
1.01018e-08
1.01015e-08
1.01012e-08
1.0101e-08
1.01009e-08
1.01007e-08
1.01001e-08
1.00995e-08
1.00991e-08
1.00987e-08
1.00982e-08
1.00975e-08
1.00968e-08
1.00963e-08
1.00958e-08
1.00952e-08
1.00945e-08
1.00938e-08
1.00931e-08
1.00926e-08
1.00921e-08
1.00916e-08
1.00912e-08
1.00907e-08
1.00903e-08
1.009e-08
1.00897e-08
1.00895e-08
1.00894e-08
1.00892e-08
1.00891e-08
1.00889e-08
1.00888e-08
1.00888e-08
1.00889e-08
1.00889e-08
1.00889e-08
1.00887e-08
1.00885e-08
1.00883e-08
1.00881e-08
1.00879e-08
1.00877e-08
1.00875e-08
1.00873e-08
1.00871e-08
1.00868e-08
1.00864e-08
1.0086e-08
1.00856e-08
1.00852e-08
1.00848e-08
1.00844e-08
1.00838e-08
1.00833e-08
1.00828e-08
1.00823e-08
1.00818e-08
1.00814e-08
1.00809e-08
1.00804e-08
1.00799e-08
1.00794e-08
1.0079e-08
1.00786e-08
1.00781e-08
1.00777e-08
1.00773e-08
1.00768e-08
1.00764e-08
1.0076e-08
1.00756e-08
1.00752e-08
1.00747e-08
1.00742e-08
1.00737e-08
1.00733e-08
1.00729e-08
1.00725e-08
1.00721e-08
1.00717e-08
1.00713e-08
1.00708e-08
1.00704e-08
1.00701e-08
1.00697e-08
1.00693e-08
1.00689e-08
1.00684e-08
1.00679e-08
1.00674e-08
1.00667e-08
1.00658e-08
1.00651e-08
1.00645e-08
1.0064e-08
1.00634e-08
1.00627e-08
1.00618e-08
1.00611e-08
1.00605e-08
1.00602e-08
1.00601e-08
1.00596e-08
1.00592e-08
1.00595e-08
1.00607e-08
1.00599e-08
1.00607e-08
1.00595e-08
1.00612e-08
1.00619e-08
1.00618e-08
1.00621e-08
1.00622e-08
1.00622e-08
1.00629e-08
1.00639e-08
1.00645e-08
1.00659e-08
1.00679e-08
1.00693e-08
1.00692e-08
1.00683e-08
1.00674e-08
1.00668e-08
1.00664e-08
1.00665e-08
1.00654e-08
1.0064e-08
1.00646e-08
1.00634e-08
1.00627e-08
1.00633e-08
1.00647e-08
1.0066e-08
1.00678e-08
1.007e-08
1.00722e-08
1.00745e-08
1.00745e-08
1.00729e-08
1.00686e-08
1.00651e-08
1.00625e-08
1.00609e-08
1.00596e-08
1.00586e-08
1.00582e-08
1.00585e-08
1.00591e-08
1.006e-08
1.0061e-08
1.0064e-08
1.00673e-08
1.00709e-08
1.00785e-08
1.00934e-08
1.01161e-08
1.01453e-08
1.01759e-08
1.01822e-08
1.01758e-08
1.01692e-08
1.01644e-08
1.01496e-08
1.01529e-08
1.01276e-08
1.00986e-08
1.00951e-08
1.00821e-08
1.0075e-08
1.00726e-08
1.00707e-08
1.00691e-08
1.00677e-08
1.00666e-08
1.00653e-08
1.0064e-08
1.00628e-08
1.00617e-08
1.00608e-08
1.006e-08
1.00593e-08
1.00587e-08
1.00584e-08
1.00581e-08
1.00579e-08
1.00577e-08
1.00575e-08
1.00575e-08
1.00575e-08
1.00575e-08
1.00576e-08
1.00577e-08
1.00579e-08
1.00581e-08
1.00582e-08
1.00584e-08
1.00585e-08
1.00586e-08
1.00588e-08
1.0059e-08
1.00592e-08
1.00593e-08
1.00593e-08
1.00593e-08
1.00592e-08
1.00592e-08
1.00592e-08
1.00592e-08
1.00593e-08
1.00594e-08
1.00595e-08
1.00596e-08
1.00597e-08
1.00597e-08
1.00598e-08
1.00599e-08
1.00599e-08
1.006e-08
1.006e-08
1.006e-08
1.006e-08
1.006e-08
1.00599e-08
1.00599e-08
1.00599e-08
1.00598e-08
1.00598e-08
1.00597e-08
1.00596e-08
1.00595e-08
1.00595e-08
1.00594e-08
1.00594e-08
1.00594e-08
1.00593e-08
1.00593e-08
1.00592e-08
1.00592e-08
1.00592e-08
1.00591e-08
1.00591e-08
1.00593e-08
1.00594e-08
1.00597e-08
1.00603e-08
1.00596e-08
1.00525e-08
1.00299e-08
1.06183e-08
1.16452e-08
1.27064e-08
1.2953e-08
1.23388e-08
1.16788e-08
1.13297e-08
1.12159e-08
1.13287e-08
1.17856e-08
1.29403e-08
1.53797e-08
1.96713e-08
2.69145e-08
3.84369e-08
5.43464e-08
7.22559e-08
8.26882e-08
1.01296e-07
1.35172e-07
1.86712e-07
2.45204e-07
3.05563e-07
3.69775e-07
4.38827e-07
5.22256e-07
6.53705e-07
7.15421e-07
6.88774e-07
7.00697e-07
7.63268e-07
8.1363e-07
8.24267e-07
7.98878e-07
7.40099e-07
6.58409e-07
5.58701e-07
4.48825e-07
3.01132e-07
1.77984e-07
1.03972e-07
6.7662e-08
5.34465e-08
4.77698e-08
4.19413e-08
3.43013e-08
2.85431e-08
2.61114e-08
2.6482e-08
2.68624e-08
2.55106e-08
2.22525e-08
1.89525e-08
1.67644e-08
1.55725e-08
1.50807e-08
1.49058e-08
1.50917e-08
1.51337e-08
1.50865e-08
1.52109e-08
1.59635e-08
1.744e-08
1.90666e-08
1.95357e-08
1.90397e-08
1.77448e-08
1.63023e-08
1.54282e-08
1.53509e-08
1.59497e-08
1.70721e-08
1.86861e-08
2.11995e-08
2.47263e-08
2.96772e-08
3.63027e-08
4.43271e-08
5.42685e-08
6.68182e-08
8.11429e-08
9.9468e-08
1.16119e-07
1.37875e-07
1.56328e-07
1.67684e-07
1.94503e-07
2.27057e-07
2.34597e-07
2.30857e-07
2.34562e-07
2.23494e-07
1.8083e-07
1.5039e-07
1.08194e-07
8.07823e-08
5.66408e-08
4.37475e-08
3.70853e-08
3.37437e-08
3.20912e-08
3.00752e-08
2.77315e-08
2.5032e-08
2.25128e-08
2.0497e-08
1.8832e-08
1.75817e-08
1.67495e-08
1.61918e-08
1.58039e-08
1.54091e-08
1.49919e-08
1.4449e-08
1.38394e-08
1.321e-08
1.25925e-08
1.2019e-08
1.1529e-08
1.11625e-08
1.09642e-08
1.08316e-08
1.07309e-08
1.06694e-08
1.06403e-08
1.06251e-08
1.06174e-08
1.06154e-08
1.05922e-08
1.05239e-08
1.04497e-08
1.03946e-08
1.03449e-08
1.03083e-08
1.02848e-08
1.02692e-08
1.02552e-08
1.02433e-08
1.02358e-08
1.023e-08
1.02262e-08
1.02239e-08
1.02216e-08
1.02204e-08
1.02202e-08
1.02203e-08
1.02206e-08
1.02208e-08
1.02209e-08
1.02215e-08
1.02227e-08
1.02242e-08
1.02256e-08
1.02265e-08
1.02277e-08
1.02292e-08
1.02311e-08
1.02329e-08
1.02345e-08
1.02357e-08
1.02365e-08
1.02372e-08
1.0238e-08
1.0239e-08
1.02399e-08
1.02403e-08
1.02401e-08
1.02395e-08
1.0239e-08
1.02386e-08
1.02377e-08
1.02361e-08
1.02337e-08
1.0231e-08
1.02284e-08
1.02258e-08
1.02234e-08
1.02204e-08
1.02166e-08
1.0212e-08
1.0207e-08
1.02021e-08
1.01975e-08
1.01932e-08
1.01892e-08
1.01852e-08
1.0181e-08
1.01766e-08
1.0172e-08
1.01677e-08
1.01637e-08
1.01601e-08
1.01567e-08
1.01533e-08
1.01499e-08
1.01465e-08
1.01433e-08
1.01405e-08
1.01378e-08
1.01353e-08
1.01326e-08
1.013e-08
1.01275e-08
1.01252e-08
1.0123e-08
1.01209e-08
1.01189e-08
1.01169e-08
1.01151e-08
1.01133e-08
1.01115e-08
1.01098e-08
1.01081e-08
1.01064e-08
1.01049e-08
1.01035e-08
1.01021e-08
1.01008e-08
1.00995e-08
1.00982e-08
1.00969e-08
1.00958e-08
1.00946e-08
1.00936e-08
1.00926e-08
1.00916e-08
1.00907e-08
1.00898e-08
1.0089e-08
1.00881e-08
1.00873e-08
1.00866e-08
1.00859e-08
1.00852e-08
1.00846e-08
1.0084e-08
1.00834e-08
1.00829e-08
1.00824e-08
1.00819e-08
1.00815e-08
1.00811e-08
1.00808e-08
1.00804e-08
1.008e-08
1.00798e-08
1.00795e-08
1.00793e-08
1.00791e-08
1.00789e-08
1.00787e-08