/*--------------------------------*- C++ -*----------------------------------*\
| =========                 |                                                 |
| \\      /  F ield         | OpenFOAM: The Open Source CFD Toolbox           |
|  \\    /   O peration     | Version:  v2006                                 |
|   \\  /    A nd           | Website:  www.openfoam.com                      |
|    \\/     M anipulation  |                                                 |
\*---------------------------------------------------------------------------*/
FoamFile
{
    version     2.0;
    format      ascii;
    class       volScalarField;
    location    "9.1";
    object      omega;
}
// * * * * * * * * * * * * * * * * * * * * * * * * * * * * * * * * * * * * * //

dimensions      [0 0 -1 0 0 0 0];


internalField   nonuniform List<scalar> 
33000
(
0.802027
0.803118
0.804473
0.805213
0.804982
0.804368
0.80384
0.803563
0.803433
0.803396
0.803464
0.803596
0.803763
0.803937
0.804115
0.804292
0.804469
0.804654
0.804868
0.805152
0.805599
0.806428
0.808043
0.810923
0.81525
0.820854
0.827746
0.834962
0.841356
0.846031
0.849424
0.85211
0.854844
0.858995
0.868601
0.888982
0.919905
0.951703
0.973137
0.984221
0.98885
0.990476
0.99069
0.989463
0.98657
0.983624
0.981123
0.979869
0.978738
0.976522
0.972676
0.968036
0.962674
0.958366
0.955614
0.955296
0.957666
0.962312
0.967502
0.971809
0.974224
0.973747
0.970064
0.963619
0.954888
0.944436
0.932405
0.918408
0.906116
0.896849
0.889926
0.884517
0.880199
0.876812
0.874295
0.873385
0.873679
0.876024
0.877308
0.879674
0.882445
0.887007
0.892528
0.899025
0.906698
0.912614
0.917072
0.91987
0.920949
0.920326
0.917802
0.913526
0.906695
0.898994
0.890324
0.882214
0.876197
0.872361
0.870952
0.872078
0.875353
0.877354
0.878083
0.878465
0.87934
0.880213
0.880627
0.88036
0.879544
0.878322
0.876857
0.875168
0.872988
0.870013
0.866338
0.86281
0.860597
0.860956
0.863019
0.863805
0.86416
0.864321
0.864842
0.865579
0.866212
0.866658
0.86696
0.867145
0.867371
0.867639
0.867922
0.868161
0.868312
0.868371
0.86842
0.86851
0.868657
0.868812
0.868958
0.869099
0.869256
0.869427
0.869577
0.869673
0.869705
0.869707
0.869717
0.869738
0.869724
0.869615
0.869406
0.86915
0.868887
0.868611
0.868292
0.867917
0.867493
0.867033
0.866547
0.866036
0.865496
0.864921
0.864307
0.863657
0.862994
0.862318
0.861601
0.860828
0.860036
0.859267
0.858517
0.857741
0.856918
0.856081
0.855281
0.854547
0.853874
0.85323
0.852569
0.851876
0.851165
0.850461
0.849794
0.849186
0.848632
0.848107
0.84757
0.847003
0.846455
0.845966
0.845532
0.845118
0.844689
0.844249
0.843815
0.843429
0.843124
0.842915
0.842771
0.842621
0.842447
0.842275
0.84216
0.842121
0.842131
0.842153
0.842162
0.842168
0.842226
0.842355
0.842506
0.842593
0.842649
0.84276
0.842922
0.843126
0.843374
0.843623
0.843819
0.843987
0.84417
0.844394
0.84465
0.844933
0.845223
0.845464
0.845665
0.845851
0.846044
0.846256
0.846484
0.846715
0.846887
0.847011
0.847115
0.847213
0.847315
0.847409
0.847483
0.847534
0.847571
0.847584
0.847558
0.847489
0.8474
0.84731
0.847218
0.847128
0.847018
0.846832
0.84662
0.846421
0.846221
0.846014
0.845798
0.845547
0.845268
0.84498
0.844688
0.844393
0.844085
0.843761
0.843422
0.84307
0.842717
0.84237
0.842023
0.841654
0.841255
0.840846
0.840444
0.840045
0.839644
0.839241
0.838838
0.838416
0.837978
0.837537
0.837098
0.83666
0.836222
0.835785
0.835351
0.834908
0.83445
0.833989
0.833534
0.83308
0.832623
0.832163
0.831696
0.831216
0.830723
0.830219
0.829703
0.829176
0.828642
0.828104
0.827562
0.827018
0.826472
0.825929
0.825386
0.824843
0.824296
0.823744
0.823193
0.822647
0.822111
0.82159
0.821085
0.820602
0.820143
0.819707
0.819294
0.818902
0.818535
0.818193
0.817877
0.817586
0.817322
0.817085
0.816873
0.816687
0.816525
0.816386
0.816269
0.816172
0.816093
0.81603
0.815981
0.815945
0.815921
0.815906
0.8159
0.815899
0.815903
0.81591
0.815917
0.815924
0.815929
0.815931
0.81593
0.815926
0.815919
0.815909
0.815896
0.815879
0.815858
0.815834
0.815806
0.815774
0.815737
0.815695
0.815649
0.815598
0.815542
0.815482
0.815417
0.815348
0.815275
0.815197
0.815116
0.81503
0.814941
0.814849
0.814753
0.814654
0.814553
0.814448
0.814342
0.814233
0.814121
0.814007
0.81389
0.813771
0.813649
0.813526
0.8134
0.813272
0.813142
0.813009
0.812874
0.812737
0.812599
0.81246
0.81232
0.812179
0.812037
0.811895
0.811753
0.811611
0.811469
0.811327
0.811186
0.811046
0.810908
0.810771
0.810636
0.810503
0.810371
0.810242
0.810114
0.80999
0.809869
0.809752
0.809637
0.809525
0.809418
0.809315
0.809216
0.809122
0.809028
0.808938
0.808851
0.808767
0.808686
0.808603
0.808517
0.808442
0.808374
0.808295
0.808239
0.808127
0.807989
0.807936
0.807898
0.807768
0.807908
0.808069
0.808538
0.80867
0.80892
0.809012
0.809119
0.809147
0.809178
0.809178
0.809188
0.809174
0.809176
0.809175
0.809114
0.809077
0.80902
0.808791
0.808618
0.808349
0.808241
0.808033
0.808101
0.808156
0.808239
0.808288
0.808345
0.808378
0.808409
0.80838
0.808371
0.808359
0.808296
0.808348
0.808207
0.807986
0.808012
0.807934
0.807601
0.80797
0.808351
0.809929
0.810378
0.81114
0.811696
0.812486
0.813292
0.814152
0.814925
0.815604
0.816187
0.816701
0.817143
0.817511
0.817822
0.818085
0.818316
0.81853
0.818721
0.818887
0.819036
0.819178
0.819308
0.819421
0.819523
0.819625
0.819728
0.819826
0.819914
0.819991
0.820061
0.820126
0.820184
0.820239
0.820294
0.820343
0.82038
0.820402
0.820413
0.820421
0.820429
0.820438
0.820447
0.82045
0.820449
0.820445
0.820438
0.820427
0.820413
0.820403
0.820397
0.82039
0.820381
0.820365
0.820343
0.820317
0.820288
0.820258
0.820228
0.820198
0.820168
0.820136
0.820104
0.82007
0.820036
0.820002
0.819971
0.819938
0.819906
0.819869
0.81984
0.819805
0.819782
0.819745
0.819717
0.819706
0.819669
0.819534
0.819548
0.818459
0.816326
0.809388
0.220882
0.499939
0.676644
0.750726
0.791322
0.787062
0.719944
0.668731
0.6497
0.640202
0.642364
0.652041
0.682697
0.73431
0.787736
0.831005
0.866316
0.90303
0.941542
0.984626
1.03217
1.07342
1.11716
1.19415
1.32592
1.48778
1.60723
1.68314
1.73619
1.76896
1.81671
1.89836
1.93289
1.87812
1.76677
1.66062
1.57373
1.48011
1.35659
1.18633
1.01134
0.893962
0.844502
0.823218
0.791919
0.724629
0.657372
0.637018
0.652753
0.661406
0.641185
0.581694
0.512738
0.465221
0.441384
0.439519
0.457729
0.49122
0.526288
0.553053
0.568507
0.580141
0.59705
0.616752
0.618192
0.600614
0.586698
0.588841
0.606753
0.644712
0.707101
0.793618
0.889746
0.969578
1.02067
1.06822
1.11631
1.18685
1.19957
1.22524
1.31224
1.39086
1.33642
1.34038
1.25704
1.22948
1.17466
1.08864
0.962404
0.837567
0.733644
0.660256
0.626496
0.635347
0.679856
0.750971
0.840276
0.947051
1.04932
1.16564
1.23961
1.22842
1.13811
1.0068
0.877996
0.739118
0.593244
0.47158
0.390055
0.32752
0.283702
0.265507
0.264544
0.275793
0.295611
0.315823
0.331938
0.349452
0.371749
0.375395
0.343387
0.30306
0.279119
0.250569
0.225036
0.211811
0.199091
0.190432
0.187321
0.184269
0.182375
0.181216
0.179005
0.178766
0.179479
0.180268
0.180494
0.180446
0.180811
0.181301
0.181886
0.181933
0.181522
0.180808
0.180502
0.180792
0.181409
0.181903
0.18173
0.181298
0.181453
0.182069
0.182758
0.183263
0.183722
0.184194
0.184736
0.185332
0.18591
0.186434
0.186921
0.187401
0.187879
0.188444
0.18906
0.189437
0.189486
0.189502
0.189715
0.190021
0.190023
0.189462
0.188563
0.18766
0.186978
0.18655
0.186045
0.185032
0.183377
0.181197
0.178769
0.176484
0.174502
0.172785
0.171112
0.169115
0.166624
0.16392
0.161466
0.159432
0.157588
0.155553
0.153109
0.150367
0.147631
0.145212
0.143201
0.141435
0.139574
0.137284
0.134627
0.131943
0.129531
0.127401
0.125355
0.123224
0.120914
0.11859
0.116529
0.114675
0.112634
0.110188
0.107669
0.105459
0.103632
0.102072
0.100518
0.0986607
0.0964641
0.0942345
0.0922544
0.0906562
0.0893322
0.0880966
0.0867212
0.0851088
0.0834374
0.0819145
0.0806974
0.0797578
0.0789242
0.0780187
0.0769264
0.0757983
0.0748136
0.0740403
0.0734646
0.0730344
0.0726839
0.0723649
0.0720532
0.0716932
0.0712954
0.070966
0.0708071
0.0709047
0.0711919
0.0714316
0.0714681
0.0713674
0.0713663
0.0716033
0.071996
0.0723788
0.0726618
0.0728223
0.0729689
0.073214
0.073543
0.0738795
0.0741353
0.0742899
0.0744194
0.0746508
0.0750649
0.075611
0.0760298
0.0761362
0.0760761
0.0760762
0.0762326
0.0765429
0.0769684
0.0774098
0.0777223
0.077835
0.0778435
0.0778726
0.077955
0.0780884
0.0783449
0.0787596
0.079135
0.0792493
0.0791868
0.0791735
0.0792692
0.0794312
0.079665
0.0799381
0.0801334
0.0801818
0.0801563
0.0801507
0.0801859
0.080293
0.080453
0.0805653
0.0805735
0.080496
0.0803686
0.080286
0.0802909
0.0802676
0.0801297
0.0798769
0.0796094
0.0793726
0.0791152
0.0787819
0.0783826
0.0780113
0.0777358
0.07749
0.0771403
0.0766832
0.076238
0.0758599
0.0755385
0.0752545
0.0750056
0.0747989
0.0746445
0.0745574
0.0745105
0.0744842
0.074532
0.0746824
0.0748808
0.0750613
0.0752296
0.0754542
0.0757792
0.07619
0.0765667
0.0767875
0.0768687
0.0769554
0.0770856
0.0772232
0.0773281
0.0773777
0.0773787
0.077364
0.0773467
0.0772692
0.0771157
0.0769058
0.0766824
0.0764772
0.0762813
0.0760519
0.0757621
0.07544
0.0751279
0.0748271
0.0745245
0.0742205
0.0738872
0.0735268
0.0731661
0.0728147
0.0724689
0.0721465
0.0718585
0.0715618
0.071209
0.0707862
0.0703577
0.0700007
0.0696909
0.0693068
0.0688291
0.0683358
0.0678916
0.0674927
0.067106
0.0667245
0.0663719
0.0659973
0.0655167
0.0649518
0.0644586
0.0640328
0.0636232
0.0632073
0.0627673
0.0622813
0.0617801
0.0613371
0.0609189
0.0604532
0.0599147
0.0594001
0.0589175
0.0584473
0.0579964
0.0576102
0.0571884
0.0566883
0.0561516
0.0556083
0.0551422
0.0547184
0.0544192
0.0539977
0.0535227
0.0528516
0.0524806
0.0520283
0.0516272
0.0511297
0.0504898
0.0500908
0.0494394
0.0490603
0.0486877
0.0479269
0.0476462
0.0477881
0.0465208
0.0469295
0.0478647
0.046525
0.0482973
0.0536191
0.0541094
0.0611547
0.0695829
0.078982
0.0715908
0.0573747
0.0550608
0.0502457
0.0490741
0.0472534
0.0463108
0.0453371
0.0447662
0.0448895
0.0479948
0.0495214
0.053665
0.0568354
0.0519169
0.0507712
0.0487351
0.043986
0.0365176
0.0356409
0.0351029
0.0343111
0.0338889
0.0344028
0.0352811
0.0364819
0.0376947
0.0386034
0.0395427
0.0405197
0.0445584
0.0580966
0.0747611
0.0989137
0.126845
0.154287
0.157817
0.15647
0.205759
0.188131
0.110147
0.0886717
0.0781044
0.0722972
0.0663682
0.0611302
0.056837
0.0531191
0.0504393
0.0494009
0.0490398
0.048735
0.0487294
0.0487731
0.0493214
0.0503543
0.0511738
0.051511
0.0520287
0.0527574
0.0533369
0.0535014
0.0537239
0.0544486
0.0554599
0.0560924
0.0564406
0.0565539
0.0567607
0.0570092
0.0571973
0.0576211
0.0582304
0.0586921
0.058683
0.0582712
0.0577824
0.0574669
0.0574698
0.0576117
0.0578823
0.057989
0.0580578
0.0582273
0.058291
0.0582526
0.0583085
0.0585791
0.0589993
0.0594503
0.0598073
0.059985
0.0600032
0.0599283
0.0598305
0.0597725
0.0597668
0.0598036
0.0598576
0.0599009
0.059917
0.0599183
0.0599437
0.0600074
0.0601285
0.0602062
0.060265
0.0602252
0.0602829
0.0603375
0.060397
0.0604585
0.0606515
0.0610981
0.0618165
0.0634764
0.0666929
0.0695505
0.0627143
0.0332607
0.129169
0.295731
0.444202
0.519776
0.498305
0.382722
0.293301
0.241214
0.214613
0.201575
0.202669
0.210277
0.245058
0.297798
0.357935
0.426401
0.504443
0.59349
0.702807
0.834971
0.985748
1.12078
1.23341
1.34622
1.4798
1.64057
1.83543
2.02171
2.1666
2.28621
2.39746
2.41893
2.32156
2.15816
1.96115
1.77981
1.59809
1.39983
1.19526
0.976294
0.784077
0.656619
0.600225
0.573616
0.545353
0.497231
0.447662
0.429899
0.436479
0.438084
0.425464
0.394146
0.354535
0.320797
0.3028
0.301369
0.311065
0.321926
0.332925
0.345864
0.354604
0.363018
0.379372
0.397957
0.404564
0.396491
0.379147
0.359072
0.340177
0.338408
0.35797
0.393746
0.438023
0.476141
0.499987
0.52056
0.558184
0.621303
0.703022
0.773266
0.908446
0.988444
1.05512
1.19776
1.32881
1.35316
1.35249
1.29103
1.20581
1.07868
0.936583
0.803774
0.692568
0.615743
0.577674
0.571635
0.59835
0.632107
0.662595
0.691901
0.724873
0.723047
0.707567
0.674001
0.633122
0.588581
0.528057
0.459911
0.394065
0.333297
0.272677
0.21836
0.168232
0.134246
0.124186
0.127593
0.132118
0.134227
0.135413
0.136825
0.145345
0.154389
0.153334
0.126841
0.0983259
0.0832198
0.0696439
0.0595001
0.0540676
0.04888
0.0450907
0.0435293
0.0423972
0.0423568
0.0428675
0.0433692
0.0434006
0.0431991
0.0432906
0.0433512
0.0436274
0.0437833
0.0437351
0.0436295
0.043672
0.0438391
0.0440387
0.0441894
0.0442681
0.0444015
0.0446736
0.044995
0.045275
0.0455156
0.0458627
0.0463128
0.0467639
0.0471235
0.0474088
0.0476671
0.0479336
0.0482571
0.0486143
0.0489701
0.0492788
0.0494891
0.0495904
0.0496589
0.0498045
0.0499797
0.0500329
0.0498708
0.0495252
0.0491459
0.0488512
0.0486337
0.0483755
0.0479203
0.0472073
0.0462758
0.0452201
0.0441638
0.0431879
0.0423251
0.0415149
0.0406104
0.0395069
0.0382641
0.037073
0.0360578
0.0351641
0.0342523
0.0332188
0.0320544
0.0308557
0.029768
0.0288542
0.0280675
0.0272768
0.0263439
0.0253016
0.0242715
0.0233518
0.0225374
0.021754
0.0209499
0.0201134
0.0192923
0.018555
0.0178923
0.0172009
0.0164181
0.0156271
0.0149276
0.0143297
0.0138026
0.0133029
0.0127687
0.0121784
0.0115846
0.0110404
0.0105795
0.0101908
0.00984326
0.00948975
0.00910143
0.0087074
0.0083404
0.0080315
0.00778067
0.00755555
0.00732517
0.00707656
0.00683523
0.0066244
0.00645319
0.00631879
0.00620595
0.00610358
0.00600691
0.00591872
0.00583922
0.00576765
0.00571142
0.00568056
0.00568332
0.00570968
0.00573536
0.00574688
0.00575154
0.00577212
0.00581907
0.00587996
0.00594185
0.00600169
0.00605652
0.00611633
0.00618875
0.00626178
0.00632704
0.00638514
0.00643959
0.00649546
0.00656653
0.00666303
0.00677449
0.00686252
0.00690612
0.00692982
0.00696411
0.00702183
0.00709964
0.00718711
0.00727511
0.00735171
0.00740709
0.00744634
0.0074803
0.00751562
0.00755971
0.0076265
0.0077167
0.00779955
0.00784464
0.00786322
0.00788955
0.00793257
0.00798163
0.00803667
0.00809638
0.00814621
0.00817951
0.00820585
0.00823247
0.00825724
0.00828571
0.00832058
0.00835682
0.00838764
0.00840263
0.00839673
0.00838733
0.00839225
0.00840292
0.00839998
0.00836854
0.00832341
0.00828491
0.00825294
0.00820927
0.00814649
0.0080829
0.00803374
0.00799455
0.00794327
0.00786835
0.00778856
0.00771963
0.00766348
0.00761746
0.00757685
0.00753869
0.00750507
0.00748147
0.00746722
0.00746096
0.00746814
0.00748891
0.00751377
0.00753583
0.00755933
0.00759444
0.0076453
0.00770617
0.00776028
0.00779549
0.00780945
0.00782103
0.00783637
0.0078517
0.00786454
0.00787195
0.00787228
0.00786869
0.00785963
0.00783355
0.00779438
0.00774979
0.00770578
0.00766493
0.00762406
0.00757659
0.00751888
0.00745559
0.00739413
0.00733601
0.0072805
0.0072259
0.00716298
0.0070941
0.00702741
0.00696469
0.00690383
0.00684536
0.00679039
0.00673422
0.006673
0.00660542
0.00653777
0.00647944
0.00642676
0.00636248
0.00628441
0.00620266
0.00613006
0.00606795
0.00600824
0.0059459
0.00588369
0.00581893
0.00574808
0.00567085
0.00560031
0.00553763
0.00547708
0.0054131
0.00534755
0.00527913
0.00521078
0.00514729
0.00508494
0.00501936
0.00495082
0.00488592
0.00482348
0.00476015
0.00470053
0.00464647
0.00459117
0.00453039
0.00446587
0.00439441
0.00433329
0.0042753
0.00423237
0.00417614
0.00412361
0.0040417
0.00398769
0.00394335
0.00388376
0.00381005
0.00373347
0.00369784
0.00360803
0.00358918
0.00356373
0.00347697
0.00350073
0.00367704
0.00356955
0.00380669
0.00427609
0.00438508
0.00474658
0.00515753
0.00550633
0.00558955
0.00549809
0.005997
0.0051069
0.00418477
0.00390659
0.00359715
0.00338797
0.00329466
0.00339137
0.00363736
0.00375787
0.00405813
0.00442086
0.00432377
0.00430891
0.00404515
0.00313121
0.00255734
0.00237208
0.00230602
0.00219245
0.00216707
0.00215981
0.00220382
0.00225114
0.0023428
0.00237997
0.00244061
0.00266775
0.00309126
0.00413181
0.00577315
0.00883728
0.0129811
0.019022
0.0204678
0.0204229
0.0264474
0.0253021
0.0195642
0.026987
0.0165686
0.00752435
0.00636826
0.00558644
0.00512365
0.00475779
0.00449145
0.00420884
0.00391882
0.00368992
0.00356535
0.00348848
0.00343371
0.00341633
0.00341826
0.00347531
0.0035614
0.00362744
0.00366495
0.00371727
0.00379181
0.00385032
0.0038815
0.00392479
0.00400537
0.00410505
0.00417878
0.00423235
0.00426863
0.00429987
0.00433262
0.00437167
0.00443328
0.00450588
0.00455958
0.00456266
0.00453215
0.00449171
0.00446842
0.004473
0.00448782
0.0045105
0.00452196
0.00453441
0.00455865
0.00457828
0.0045902
0.00460907
0.00464444
0.00469164
0.0047391
0.00477712
0.00480037
0.0048095
0.00480928
0.0048052
0.00480218
0.00480382
0.00481092
0.00482093
0.00482963
0.0048351
0.00483952
0.00484806
0.0048614
0.00487866
0.00488937
0.00489659
0.00489798
0.00490649
0.00491642
0.00492241
0.00492801
0.00496158
0.00503089
0.0051116
0.00531259
0.00561652
0.00598165
0.00551977
0.0033481
0.0794895
0.176566
0.275185
0.315684
0.274983
0.211303
0.15841
0.125686
0.110695
0.107694
0.118562
0.137003
0.173365
0.227702
0.301053
0.406233
0.543342
0.69246
0.84168
1.00488
1.12681
1.21631
1.29185
1.3627
1.43789
1.54499
1.72093
1.88919
1.9365
1.95805
1.97153
1.94477
1.87085
1.76425
1.62591
1.46147
1.28272
1.10827
0.910728
0.704855
0.545614
0.445818
0.400827
0.378819
0.357853
0.323131
0.291098
0.277598
0.280629
0.281889
0.274569
0.254
0.228791
0.208107
0.194859
0.18867
0.187734
0.191364
0.196585
0.199026
0.200701
0.208193
0.224145
0.240872
0.249067
0.246097
0.233562
0.214467
0.19947
0.193006
0.196946
0.210094
0.22989
0.257259
0.28825
0.321373
0.357645
0.398699
0.458416
0.526395
0.618455
0.713012
0.798436
0.923839
1.01628
1.0661
1.13995
1.24912
1.3116
1.23734
1.15445
0.964169
0.826
0.691162
0.585263
0.507636
0.465197
0.45904
0.460336
0.461962
0.453644
0.436017
0.41509
0.387999
0.360929
0.340109
0.322054
0.310528
0.303667
0.284082
0.253483
0.221619
0.18866
0.157003
0.128549
0.100625
0.077045
0.066802
0.0633093
0.0603089
0.0570183
0.0563537
0.0566724
0.0607072
0.0642459
0.0626917
0.0485873
0.0353023
0.0281048
0.0223371
0.0183484
0.0161296
0.0142384
0.0130643
0.0126349
0.0124667
0.0123737
0.0122982
0.0122815
0.0121543
0.0121091
0.0121332
0.0121266
0.0121415
0.0121768
0.0122058
0.0122393
0.0122835
0.0123329
0.0124082
0.0125037
0.0126043
0.0127043
0.0127983
0.0129087
0.0130439
0.0131974
0.0133467
0.0134733
0.0135736
0.0136548
0.0137402
0.0138367
0.0139382
0.0140324
0.0141021
0.0141296
0.0141214
0.0141224
0.0141421
0.0141348
0.0140617
0.0139226
0.0137593
0.013606
0.0134687
0.0133329
0.0131593
0.0129232
0.0126253
0.0122813
0.0119212
0.0115789
0.0112757
0.0110049
0.0107334
0.0104231
0.0100673
0.00970313
0.00937411
0.00909051
0.00883263
0.00857667
0.00829846
0.00799695
0.0077037
0.00744588
0.00722713
0.00702275
0.00679412
0.00653512
0.00627485
0.00604123
0.00583416
0.00563108
0.00541786
0.00520162
0.00499307
0.00480542
0.00463887
0.00447242
0.00429218
0.00410981
0.00394453
0.00379491
0.00365609
0.00353113
0.00341209
0.00328957
0.00316405
0.00304023
0.0029281
0.00283143
0.00274877
0.00267294
0.00259383
0.00251284
0.0024321
0.00235687
0.00229215
0.00223587
0.00218416
0.00213363
0.00208471
0.00203922
0.00199944
0.00196367
0.00192856
0.00189665
0.00187064
0.00184942
0.00183054
0.00181164
0.00179339
0.00177771
0.0017665
0.00175996
0.00175769
0.00175738
0.00175614
0.00175456
0.0017539
0.00175436
0.00175787
0.00176537
0.00177382
0.00178215
0.0017901
0.00179747
0.00180616
0.00181529
0.00182442
0.00183426
0.00184499
0.00185764
0.00187311
0.00188784
0.00189826
0.00190722
0.00191728
0.00192907
0.00194172
0.00195472
0.00196871
0.0019835
0.00199781
0.00201106
0.00202252
0.00203199
0.0020418
0.00205423
0.0020698
0.00208595
0.00209941
0.00211007
0.0021199
0.00213046
0.00214147
0.00215271
0.00216477
0.00217684
0.00218791
0.00219758
0.00220614
0.00221347
0.0022203
0.00222756
0.0022354
0.00224359
0.00224959
0.0022514
0.00225154
0.00225309
0.00225528
0.00225508
0.00225012
0.00224248
0.00223572
0.00222981
0.00222146
0.00220932
0.0021961
0.00218413
0.00217323
0.00216048
0.00214343
0.00212455
0.00210672
0.00209061
0.0020756
0.00206038
0.00204445
0.00202845
0.00201359
0.00200004
0.00198779
0.00197742
0.00196856
0.00195991
0.00195077
0.00194204
0.00193541
0.00193158
0.0019293
0.00192594
0.00192083
0.00191401
0.00190737
0.00190144
0.00189577
0.00189058
0.00188578
0.00188059
0.00187454
0.00186687
0.00185675
0.00184599
0.00183561
0.00182582
0.00181671
0.00180799
0.00179875
0.001788
0.00177624
0.00176506
0.00175507
0.00174623
0.00173767
0.00172759
0.00171699
0.00170728
0.00169842
0.00168988
0.00168136
0.00167306
0.00166498
0.00165704
0.00164891
0.00164035
0.0016323
0.00162537
0.00161803
0.00160911
0.00159905
0.00158997
0.00158239
0.00157521
0.00156741
0.00155937
0.00155143
0.00154348
0.00153525
0.00152748
0.00152039
0.00151339
0.00150537
0.00149713
0.00148914
0.00148165
0.00147427
0.00146622
0.00145798
0.00145028
0.0014433
0.0014363
0.00142877
0.00142129
0.00141473
0.00140855
0.00140219
0.00139559
0.00138754
0.0013812
0.0013749
0.00136857
0.00136077
0.00135499
0.00134486
0.00134251
0.00134423
0.00134307
0.00133919
0.00133695
0.00133105
0.00132747
0.00135328
0.00145624
0.00150223
0.00162028
0.001783
0.00197637
0.00188934
0.00172086
0.00167548
0.00159906
0.0015324
0.00149026
0.00144341
0.00140212
0.00141924
0.00140607
0.00139543
0.00144386
0.00157134
0.00165761
0.00180619
0.00197606
0.00214658
0.00235508
0.00241271
0.00229213
0.00194472
0.0016885
0.00154676
0.00142875
0.0013442
0.00129062
0.00127269
0.00130851
0.00134315
0.00140146
0.00144223
0.00165991
0.00184422
0.00205045
0.00261135
0.00373382
0.00577539
0.00830394
0.0124255
0.011769
0.00938312
0.00898004
0.00843924
0.00706103
0.00736536
0.00525903
0.0032859
0.00287844
0.00234052
0.00208624
0.00198004
0.0019018
0.00183995
0.00179697
0.00175662
0.00171392
0.00167141
0.00163201
0.00159745
0.00156769
0.00154299
0.00152381
0.0015094
0.0014993
0.00149176
0.00148555
0.00148061
0.00147798
0.00147723
0.00147657
0.00147596
0.00147699
0.00148
0.00148411
0.00148767
0.00149081
0.00149369
0.001496
0.0014983
0.0015014
0.00150571
0.00151029
0.00151393
0.00151528
0.00151506
0.00151424
0.00151396
0.00151475
0.00151617
0.00151784
0.00151926
0.00152081
0.00152283
0.00152492
0.00152695
0.0015293
0.0015323
0.00153578
0.00153923
0.00154212
0.00154423
0.00154558
0.00154633
0.00154675
0.00154712
0.00154771
0.00154862
0.00154978
0.0015509
0.00155182
0.00155266
0.00155376
0.00155529
0.00155672
0.00155772
0.00155844
0.00155905
0.0015601
0.00156113
0.00156181
0.00156406
0.00157867
0.00161167
0.00165676
0.00176008
0.00191898
0.00214968
0.00212255
0.00156521
0.0505112
0.109165
0.167537
0.188214
0.167911
0.130597
0.0989808
0.0794421
0.0719369
0.0753936
0.0906873
0.110819
0.140391
0.187827
0.26102
0.366321
0.498019
0.609588
0.728622
0.854004
0.971859
1.05069
1.08867
1.11132
1.13932
1.19399
1.29967
1.35348
1.33528
1.34557
1.38903
1.40472
1.3708
1.29559
1.19084
1.07158
0.942581
0.805738
0.631371
0.469269
0.355049
0.289428
0.258747
0.243416
0.227774
0.206774
0.189135
0.180841
0.181426
0.182124
0.178104
0.167043
0.152884
0.140117
0.129746
0.122036
0.117639
0.116718
0.116256
0.115075
0.115711
0.121256
0.132657
0.14511
0.152372
0.153591
0.147929
0.136439
0.12532
0.119475
0.119388
0.123626
0.132626
0.146547
0.164799
0.188203
0.216646
0.248847
0.288797
0.338535
0.394483
0.458435
0.516476
0.585397
0.643531
0.686034
0.769134
0.866753
0.915942
0.933344
0.96619
0.96036
0.876818
0.795811
0.660407
0.548843
0.440556
0.371229
0.32911
0.304446
0.290973
0.278504
0.265345
0.248212
0.230377
0.215123
0.201372
0.192248
0.188727
0.187926
0.187967
0.183424
0.17275
0.155783
0.137507
0.118139
0.0988827
0.0811658
0.0633822
0.0480865
0.03945
0.034911
0.0321469
0.0303527
0.0304728
0.0312519
0.0334681
0.0353574
0.03472
0.0268209
0.019446
0.0154338
0.0121944
0.00995373
0.00859162
0.0078457
0.00699271
0.00624423
0.00586205
0.00558255
0.00542451
0.00534488
0.00526359
0.00521365
0.00519733
0.00517927
0.00518052
0.00519913
0.00522607
0.00525787
0.00529186
0.00532813
0.00537359
0.00542447
0.00547623
0.00552797
0.00558487
0.00564908
0.00571087
0.00576192
0.00580468
0.00584349
0.00588018
0.00591728
0.00595642
0.005991
0.00601234
0.0060196
0.00602171
0.00602813
0.00603258
0.00602027
0.00598785
0.0059429
0.00589281
0.00584263
0.00579658
0.00574937
0.00569026
0.00561266
0.00551444
0.00540396
0.00529596
0.0051994
0.00511587
0.00504016
0.00495457
0.00484972
0.00473606
0.0046276
0.00453375
0.00445203
0.00437512
0.00429448
0.00420185
0.00409985
0.00400207
0.00392101
0.00385159
0.00378054
0.0037011
0.00361701
0.00353815
0.00346674
0.00339505
0.00331607
0.00323352
0.0031561
0.00308883
0.00302837
0.00296579
0.00289534
0.00282173
0.00275255
0.00268488
0.00261935
0.00256164
0.00250842
0.00245433
0.00239682
0.00233698
0.00227976
0.00222759
0.00218103
0.002139
0.00209723
0.00205499
0.00201279
0.00196922
0.00192665
0.00188908
0.00185634
0.00182585
0.00179555
0.00176579
0.00173878
0.00171354
0.00168769
0.00166357
0.00164471
0.00162868
0.00161249
0.00159594
0.00157905
0.00156367
0.00155238
0.00154531
0.00154066
0.0015361
0.00153057
0.00152446
0.00151892
0.00151571
0.00151503
0.00151637
0.00151804
0.00151924
0.00151983
0.00152111
0.00152533
0.00153025
0.00153399
0.00153779
0.00154098
0.00154378
0.00154895
0.00155665
0.00156427
0.00157074
0.00157621
0.00158075
0.00158548
0.00159222
0.00160018
0.00160774
0.00161488
0.00162228
0.00162997
0.00163664
0.0016424
0.00164876
0.00165632
0.00166482
0.00167339
0.00168126
0.00168735
0.00169256
0.00169935
0.00170682
0.0017137
0.00172079
0.00172755
0.00173253
0.00173728
0.00174284
0.00174793
0.00175227
0.00175622
0.00175983
0.0017627
0.00176482
0.00176649
0.00176752
0.00176752
0.00176637
0.00176451
0.00176189
0.00175864
0.00175472
0.00174957
0.0017433
0.00173639
0.00172897
0.00172078
0.00171149
0.00170118
0.00169034
0.00167924
0.00166791
0.00165596
0.0016432
0.00163011
0.00161704
0.00160395
0.00159071
0.00157737
0.00156419
0.00155122
0.00153841
0.00152558
0.00151292
0.00150103
0.00149015
0.00147971
0.00146889
0.00145818
0.00144818
0.00143898
0.00143053
0.00142256
0.00141505
0.00140786
0.00140083
0.00139376
0.00138669
0.0013801
0.00137394
0.00136797
0.00136225
0.00135686
0.00135199
0.0013476
0.00134307
0.00133818
0.00133346
0.0013293
0.00132568
0.00132228
0.00131884
0.00131553
0.00131251
0.00130982
0.00130729
0.00130471
0.00130218
0.00129979
0.00129754
0.00129545
0.00129344
0.00129128
0.00128918
0.00128752
0.00128589
0.00128392
0.00128178
0.00127957
0.00127761
0.0012758
0.00127402
0.00127211
0.00127021
0.00126826
0.00126638
0.00126452
0.00126281
0.00126094
0.00125877
0.00125665
0.00125464
0.00125276
0.00125023
0.00124772
0.00124521
0.00124322
0.00124092
0.00123857
0.00123572
0.00123336
0.00123084
0.00122908
0.00122771
0.00122536
0.00122199
0.00121992
0.00121759
0.00121825
0.00122615
0.00122957
0.00124443
0.00123601
0.00122835
0.00123382
0.00126265
0.00136504
0.00142647
0.00154309
0.00169782
0.00190388
0.00178605
0.00158108
0.00152055
0.00142603
0.00134409
0.0012766
0.00124652
0.00123388
0.00124052
0.00125774
0.00128281
0.00135066
0.00151237
0.00165885
0.00187145
0.00206542
0.00234068
0.0024183
0.00236416
0.00210237
0.00178706
0.00157022
0.00146853
0.00137022
0.00131324
0.00127706
0.00126432
0.00129368
0.00132829
0.00139321
0.00149927
0.00178869
0.00214836
0.00279541
0.0039726
0.00557077
0.00709472
0.0100945
0.013625
0.0125768
0.00961648
0.00864517
0.00771648
0.00629551
0.00589564
0.00429972
0.00303828
0.00249349
0.0020735
0.00186224
0.00174393
0.00168179
0.00164402
0.00162804
0.00162173
0.00161447
0.00160213
0.00158352
0.00156406
0.00154403
0.00152328
0.00150236
0.00148256
0.00146485
0.00144938
0.00143563
0.00142326
0.00141242
0.00140308
0.00139519
0.00138854
0.00138282
0.00137801
0.00137428
0.00137136
0.00136887
0.00136678
0.00136522
0.00136397
0.00136288
0.00136215
0.00136165
0.00136128
0.00136109
0.00136098
0.00136088
0.00136088
0.00136084
0.00136084
0.00136084
0.00136088
0.00136105
0.00136133
0.00136166
0.00136196
0.00136223
0.00136254
0.00136288
0.00136323
0.00136362
0.00136406
0.00136449
0.00136489
0.00136524
0.00136555
0.00136584
0.00136608
0.00136627
0.0013664
0.00136652
0.00136668
0.00136686
0.00136702
0.00136716
0.0013673
0.00136754
0.00136761
0.00136775
0.00136781
0.00136788
0.0013682
0.00136843
0.00136858
0.00137051
0.00138347
0.00141321
0.0014547
0.00154891
0.0016945
0.0019078
0.00190548
0.00145266
0.0323878
0.0686453
0.103328
0.116713
0.108743
0.0870395
0.067347
0.0556232
0.0529268
0.0599269
0.0733642
0.0878952
0.108591
0.143253
0.198253
0.274942
0.372157
0.473913
0.556842
0.619944
0.671841
0.71099
0.735693
0.747662
0.759334
0.799515
0.861343
0.889398
0.884312
0.889906
0.913367
0.934049
0.927599
0.886027
0.82384
0.747436
0.656875
0.53629
0.405637
0.297922
0.226714
0.187053
0.167228
0.155953
0.146222
0.135641
0.126852
0.121903
0.120809
0.120898
0.11898
0.114491
0.107594
0.0992244
0.0908374
0.0838049
0.0788377
0.0761789
0.074579
0.0735019
0.073818
0.0767661
0.0832117
0.090928
0.0960566
0.0980797
0.0970545
0.0923142
0.0863905
0.0823783
0.0808595
0.0818187
0.0859086
0.093919
0.105397
0.118909
0.13308
0.150968
0.172219
0.198747
0.231702
0.269411
0.308808
0.347374
0.381563
0.411768
0.441959
0.485716
0.522602
0.536378
0.587238
0.588195
0.560596
0.548376
0.521959
0.482965
0.429669
0.361144
0.29986
0.251552
0.218294
0.194814
0.17788
0.165808
0.154932
0.14568
0.137181
0.130572
0.12676
0.124982
0.124379
0.124518
0.126546
0.12728
0.124752
0.117405
0.106075
0.093788
0.0807703
0.0679189
0.0559753
0.0441337
0.0342667
0.0287136
0.0260383
0.0245997
0.0238783
0.0248497
0.0267553
0.0297694
0.0320604
0.0324173
0.0261037
0.0196275
0.0152558
0.0125944
0.0101622
0.00842773
0.00709386
0.00594744
0.00507772
0.00460845
0.00430691
0.00411306
0.00399107
0.00389104
0.00382795
0.00381564
0.00381464
0.00381813
0.00382698
0.00384433
0.0038728
0.00390828
0.00393857
0.00396373
0.00398865
0.00402233
0.00406151
0.0040979
0.00412784
0.00414892
0.00416388
0.00417991
0.00420239
0.00422705
0.00424582
0.00425546
0.00425698
0.00425816
0.00426499
0.00427296
0.00427315
0.0042615
0.00424199
0.0042213
0.00420715
0.00420172
0.00419557
0.0041767
0.00414305
0.00410251
0.00406191
0.00402437
0.00399491
0.00397524
0.00395254
0.00391597
0.00386829
0.00381607
0.00376945
0.00373308
0.00370116
0.00366896
0.0036299
0.00357695
0.00351777
0.00346683
0.00342357
0.0033848
0.00334886
0.00330665
0.00325619
0.00320319
0.00314952
0.00309218
0.00303522
0.00298603
0.00294181