/*--------------------------------*- C++ -*----------------------------------*\
| =========                 |                                                 |
| \\      /  F ield         | OpenFOAM: The Open Source CFD Toolbox           |
|  \\    /   O peration     | Version:  v2006                                 |
|   \\  /    A nd           | Website:  www.openfoam.com                      |
|    \\/     M anipulation  |                                                 |
\*---------------------------------------------------------------------------*/
FoamFile
{
    version     2.0;
    format      ascii;
    class       volScalarField;
    location    "9.1";
    object      p;
}
// * * * * * * * * * * * * * * * * * * * * * * * * * * * * * * * * * * * * * //

dimensions      [1 -1 -2 0 0 0 0];


internalField   nonuniform List<scalar> 
33000
(
7850.92
7859.5
7864.45
7870.22
7876
7881.98
7888.09
7894.12
7899.77
7904.94
7909.68
7914.14
7918.47
7922.72
7926.89
7930.93
7934.79
7938.52
7942.29
7946.24
7950.43
7954.77
7959.34
7963.87
7967.98
7971.83
7975.56
7979.06
7982.36
7985.57
7988.76
7992
7995.19
7998.51
8001.79
8004.81
8007.51
8009.97
8012.22
8014.27
8016.16
8017.89
8019.49
8020.92
8022.21
8023.33
8024.32
8025.14
8025.81
8026.29
8026.64
8026.84
8026.9
8026.78
8026.5
8026.05
8025.43
8024.66
8023.72
8022.66
8021.45
8020.1
8018.6
8016.97
8015.21
8013.32
8011.31
8009.18
8006.93
8004.57
8002.1
7999.55
7996.96
7994.36
7991.8
7989.35
7987.08
7984.55
7980.65
7973.71
7971.52
7966.31
7961.77
7956.97
7952.01
7946.27
7941.21
7935.33
7929.9
7923.76
7918.03
7911.82
7905.78
7899.45
7893.53
7886.99
7881.59
7874.77
7870.8
7863.73
7852.09
7843.54
7833.6
7823.94
7814.36
7804.51
7794.36
7784.21
7773.86
7763.64
7753.33
7743.15
7733.12
7723.08
7713.59
7703.73
7695.54
7685.26
7672.34
7661.65
7650.52
7639.43
7628.68
7617.95
7607.25
7596.88
7586.68
7576.71
7566.98
7557.5
7548.29
7539.36
7530.7
7522.28
7514.13
7506.22
7498.57
7491.15
7483.97
7477
7470.26
7463.74
7457.41
7451.28
7445.31
7439.5
7433.86
7428.38
7423.1
7418.02
7413.15
7408.49
7404.08
7399.92
7396.01
7392.37
7389
7385.92
7383.11
7380.61
7378.39
7376.47
7374.85
7373.54
7372.52
7371.82
7371.42
7371.31
7371.5
7371.99
7372.78
7373.87
7375.23
7376.87
7378.78
7380.95
7383.38
7386.07
7389.02
7392.21
7395.62
7399.25
7403.08
7407.11
7411.33
7415.75
7420.34
7425.1
7430.01
7435.05
7440.23
7445.54
7450.97
7456.5
7462.13
7467.84
7473.62
7479.45
7485.35
7491.3
7497.3
7503.33
7509.37
7515.42
7521.48
7527.53
7533.58
7539.62
7545.64
7551.62
7557.57
7563.49
7569.39
7575.23
7581.01
7586.73
7592.4
7598
7603.55
7609.05
7614.48
7619.83
7625.11
7630.31
7635.44
7640.49
7645.48
7650.4
7655.25
7660.01
7664.69
7669.3
7673.83
7678.3
7682.7
7687.02
7691.27
7695.44
7699.54
7703.57
7707.53
7711.43
7715.26
7719.02
7722.73
7726.37
7729.94
7733.45
7736.89
7740.29
7743.62
7746.9
7750.11
7753.27
7756.37
7759.42
7762.42
7765.37
7768.27
7771.11
7773.9
7776.65
7779.34
7781.99
7784.59
7787.14
7789.65
7792.11
7794.53
7796.91
7799.24
7801.53
7803.77
7805.98
7808.14
7810.27
7812.35
7814.4
7816.41
7818.38
7820.32
7822.22
7824.08
7825.9
7827.7
7829.46
7831.19
7832.89
7834.56
7836.2
7837.8
7839.38
7840.91
7842.41
7843.87
7845.29
7846.66
7848
7849.28
7850.52
7851.71
7852.85
7853.93
7854.96
7855.94
7856.85
7857.71
7858.5
7859.23
7859.89
7860.49
7861.01
7861.47
7861.86
7862.18
7862.42
7862.59
7862.69
7862.72
7862.67
7862.55
7862.35
7862.08
7861.74
7861.32
7860.84
7860.28
7859.65
7858.96
7858.2
7857.38
7856.5
7855.56
7854.56
7853.5
7852.39
7851.24
7850.03
7848.78
7847.5
7846.17
7844.8
7843.41
7841.98
7840.53
7839.05
7837.55
7836.03
7834.5
7832.95
7831.4
7829.83
7828.27
7826.69
7825.12
7823.55
7821.99
7820.42
7818.87
7817.33
7815.8
7814.28
7812.78
7811.29
7809.82
7808.37
7806.93
7805.52
7804.13
7802.77
7801.42
7800.11
7798.81
7797.55
7796.3
7795.09
7793.89
7792.72
7791.58
7790.46
7789.37
7788.3
7787.26
7786.24
7785.25
7784.28
7783.34
7782.42
7781.52
7780.65
7779.8
7778.97
7778.16
7777.37
7776.6
7775.86
7775.12
7774.41
7773.72
7773.04
7772.38
7771.73
7771.1
7770.48
7769.88
7769.29
7768.71
7768.14
7767.59
7767.05
7766.52
7765.99
7765.48
7764.98
7764.49
7764
7763.53
7763.05
7762.59
7762.14
7761.69
7761.24
7760.81
7760.38
7759.95
7759.53
7759.12
7758.72
7758.31
7757.93
7757.55
7757.15
7756.78
7756.4
7756.05
7755.69
7755.35
7755.01
7754.68
7754.36
7754.04
7753.74
7753.43
7753.13
7752.84
7752.56
7752.27
7752.03
7751.75
7751.43
7751.16
7750.88
7750.63
7750.37
7750.13
7749.89
7749.67
7749.45
7749.24
7749.03
7748.84
7748.64
7748.46
7748.29
7748.13
7747.95
7747.82
7747.65
7747.44
7747.38
7747.28
7747.17
7747.05
7746.93
7746.81
7746.68
7746.55
7746.41
7746.27
7746.13
7745.99
7745.84
7745.68
7745.53
7745.36
7745.2
7745.02
7744.84
7744.66
7744.47
7744.27
7744.07
7743.86
7743.64
7743.41
7743.18
7742.94
7742.69
7742.44
7742.17
7741.9
7741.62
7741.34
7741.04
7740.74
7740.43
7740.12
7739.79
7739.47
7739.13
7738.79
7738.45
7738.1
7737.75
7737.39
7737.04
7736.68
7736.32
7735.95
7735.59
7735.23
7734.87
7734.52
7734.16
7733.81
7733.47
7733.13
7732.8
7732.47
7732.15
7731.84
7731.54
7731.25
7730.96
7730.69
7730.43
7730.19
7729.95
7729.73
7729.52
7729.32
7729.14
7728.97
7728.82
7728.68
7728.56
7728.44
7728.38
7728.26
7728.21
7654.48
7663.2
7668.05
7673.7
7679.27
7685.26
7691.27
7697.24
7702.89
7707.56
7712.45
7717.07
7721.62
7726.08
7730.38
7734.44
7738.17
7741.7
7745.3
7749.21
7753.61
7758.33
7763.23
7767.99
7772.22
7776.15
7779.75
7783.09
7786.24
7789.32
7792.47
7795.74
7799.05
7802.38
7805.75
7808.89
7811.61
7814.13
7816.45
7818.54
7820.43
7822.14
7823.72
7825.15
7826.42
7827.54
7828.54
7829.35
7830.03
7830.52
7830.86
7831.04
7831.09
7830.97
7830.68
7830.23
7829.61
7828.83
7827.91
7826.85
7825.65
7824.3
7822.77
7821.12
7819.34
7817.42
7815.37
7813.23
7810.95
7808.55
7806.04
7803.43
7800.74
7797.95
7795.1
7792.13
7789.09
7785.99
7782.92
7780.23
7777.43
7772.62
7764.25
7761.31
7755.95
7750.41
7745.35
7739.88
7734.36
7727.81
7722.19
7715.6
7709.61
7703.01
7696.83
7689.99
7683.6
7676.72
7669.82
7662.93
7654.71
7649.31
7640.82
7628.73
7619.02
7608.2
7598.23
7587.92
7578
7567.82
7557.4
7547.05
7536.73
7526.45
7516.36
7506.23
7496.28
7486.36
7475.85
7467.1
7456.26
7443.38
7432.44
7421.56
7410.97
7400.65
7390.48
7380.39
7370.64
7361.13
7351.9
7342.94
7334.25
7325.81
7317.63
7309.7
7302.04
7294.61
7287.43
7280.46
7273.72
7267.18
7260.84
7254.68
7248.71
7242.89
7237.24
7231.76
7226.47
7221.36
7216.48
7211.81
7207.4
7203.23
7199.31
7195.66
7192.28
7189.18
7186.38
7183.87
7181.65
7179.73
7178.12
7176.79
7175.78
7175.08
7174.68
7174.59
7174.79
7175.29
7176.08
7177.17
7178.55
7180.2
7182.12
7184.3
7186.75
7189.45
7192.4
7195.6
7199.03
7202.67
7206.52
7210.56
7214.8
7219.22
7223.82
7228.6
7233.52
7238.59
7243.79
7249.1
7254.53
7260.07
7265.71
7271.44
7277.23
7283.08
7288.99
7294.95
7300.96
7306.99
7313.04
7319.1
7325.17
7331.24
7337.3
7343.35
7349.37
7355.36
7361.33
7367.26
7373.15
7379
7384.79
7390.52
7396.2
7401.82
7407.37
7412.87
7418.3
7423.66
7428.95
7434.16
7439.3
7444.36
7449.35
7454.27
7459.12
7463.88
7468.57
7473.19
7477.73
7482.2
7486.6
7490.92
7495.17
7499.34
7503.44
7507.47
7511.44
7515.34
7519.17
7522.94
7526.64
7530.27
7533.85
7537.35
7540.8
7544.2
7547.53
7550.8
7554.02
7557.18
7560.28
7563.33
7566.33
7569.27
7572.16
7575.01
7577.8
7580.54
7583.24
7585.88
7588.48
7591.03
7593.54
7596
7598.42
7600.79
7603.12
7605.41
7607.66
7609.86
7612.02
7614.15
7616.23
7618.28
7620.29
7622.26
7624.19
7626.09
7627.95
7629.78
7631.57
7633.34
7635.07
7636.77
7638.44
7640.08
7641.68
7643.25
7644.79
7646.29
7647.75
7649.17
7650.55
7651.88
7653.17
7654.41
7655.6
7656.74
7657.83
7658.86
7659.84
7660.75
7661.61
7662.4
7663.13
7663.8
7664.39
7664.92
7665.38
7665.77
7666.09
7666.34
7666.51
7666.61
7666.64
7666.59
7666.46
7666.27
7666
7665.65
7665.24
7664.75
7664.19
7663.57
7662.87
7662.11
7661.29
7660.4
7659.46
7658.46
7657.4
7656.29
7655.13
7653.92
7652.67
7651.38
7650.04
7648.68
7647.28
7645.85
7644.39
7642.91
7641.41
7639.88
7638.35
7636.8
7635.24
7633.67
7632.1
7630.52
7628.95
7627.37
7625.8
7624.24
7622.68
7621.14
7619.6
7618.08
7616.58
7615.09
7613.61
7612.16
7610.73
7609.32
7607.93
7606.56
7605.21
7603.89
7602.6
7601.33
7600.09
7598.87
7597.67
7596.5
7595.36
7594.24
7593.15
7592.08
7591.04
7590.02
7589.03
7588.06
7587.12
7586.2
7585.3
7584.43
7583.58
7582.75
7581.94
7581.15
7580.38
7579.63
7578.9
7578.19
7577.5
7576.82
7576.16
7575.51
7574.88
7574.26
7573.66
7573.07
7572.49
7571.93
7571.37
7570.83
7570.3
7569.78
7569.27
7568.76
7568.27
7567.79
7567.31
7566.84
7566.38
7565.92
7565.47
7565.03
7564.59
7564.16
7563.73
7563.31
7562.91
7562.51
7562.1
7561.7
7561.32
7560.93
7560.57
7560.18
7559.83
7559.47
7559.14
7558.79
7558.47
7558.14
7557.82
7557.51
7557.22
7556.92
7556.67
7556.38
7556.05
7555.77
7555.47
7555.19
7554.92
7554.65
7554.4
7554.15
7553.91
7553.68
7553.45
7553.23
7553.02
7552.81
7552.63
7552.44
7552.26
7552.08
7551.89
7551.66
7551.58
7551.47
7551.34
7551.22
7551.11
7550.99
7550.86
7550.74
7550.62
7550.49
7550.35
7550.22
7550.08
7549.94
7549.8
7549.65
7549.49
7549.34
7549.18
7549.01
7548.84
7548.66
7548.48
7548.29
7548.09
7547.89
7547.68
7547.46
7547.23
7547
7546.76
7546.51
7546.26
7545.99
7545.72
7545.44
7545.15
7544.86
7544.56
7544.25
7543.93
7543.61
7543.28
7542.94
7542.6
7542.26
7541.91
7541.56
7541.2
7540.84
7540.48
7540.12
7539.75
7539.39
7539.03
7538.67
7538.31
7537.95
7537.6
7537.26
7536.92
7536.58
7536.25
7535.93
7535.62
7535.32
7535.02
7534.74
7534.47
7534.2
7533.95
7533.72
7533.49
7533.28
7533.09
7532.9
7532.74
7532.58
7532.44
7532.32
7532.2
7532.14
7532.02
7531.97
7458.19
7466.9
7471.79
7477.5
7483.14
7488.92
7494.68
7500.37
7505.83
7510.49
7515.38
7520.09
7524.8
7529.39
7533.76
7537.77
7541.44
7544.93
7548.56
7552.61
7557.05
7561.97
7567.12
7572.11
7576.66
7580.67
7584.2
7587.39
7590.3
7593.15
7596.17
7599.4
7602.75
7606.21
7609.63
7612.86
7615.83
7618.5
7620.89
7623.03
7624.94
7626.67
7628.25
7629.71
7631
7632.13
7633.14
7633.95
7634.63
7635.13
7635.47
7635.65
7635.7
7635.57
7635.27
7634.81
7634.19
7633.43
7632.51
7631.45
7630.24
7628.86
7627.32
7625.63
7623.81
7621.86
7619.8
7617.6
7615.28
7612.83
7610.28
7607.61
7604.82
7601.94
7598.98
7595.91
7592.74
7589.36
7585.78
7582.01
7578.06
7574.26
7571.01
7567.84
7562.68
7553.24
7549.49
7543.92
7538.44
7532.1
7526.4
7520.25
7513.41
7507.14
7500.3
7493.61
7486.75
7479.85
7472.49
7465.14
7456.87
7448.55
7440.1
7431.32
7424.56
7415.54
7403.55
7393.2
7381.83
7371.71
7361.09
7351.06
7340.69
7330.23
7319.85
7309.4
7299.12
7288.71
7277.99
7267.54
7257.16
7246.67
7237.56
7226.95
7214.71
7204.21
7193.89
7183.86
7174.12
7164.61
7155.28
7146.26
7137.51
7129.02
7120.81
7112.85
7105.15
7097.7
7090.49
7083.51
7076.73
7070.18
7063.8
7057.62
7051.61
7045.78
7040.11
7034.63
7029.31
7024.19
7019.28
7014.61
7010.18
7006
7002.07
6998.4
6995.01
6991.91
6989.1
6986.58
6984.37
6982.45
6980.83
6979.51
6978.51
6977.81
6977.42
6977.33
6977.55
6978.06
6978.87
6979.97
6981.36
6983.03
6984.98
6987.19
6989.66
6992.39
6995.36
6998.58
7002.02
7005.69
7009.56
7013.64
7017.9
7022.36
7026.98
7031.78
7036.73
7041.83
7047.06
7052.4
7057.86
7063.42
7069.07
7074.82
7080.64
7086.52
7092.46
7098.44
7104.46
7110.51
7116.58
7122.67
7128.76
7134.85
7140.92
7146.98
7153.02
7159.04
7165.03
7170.98
7176.88
7182.74
7188.55
7194.3
7199.99
7205.63
7211.2
7216.71
7222.15
7227.52
7232.82
7238.05
7243.21
7248.28
7253.28
7258.2
7263.05
7267.83
7272.53
7277.15
7281.7
7286.18
7290.58
7294.91
7299.16
7303.33
7307.44
7311.48
7315.45
7319.35
7323.19
7326.95
7330.65
7334.28
7337.85
7341.37
7344.82
7348.21
7351.54
7354.81
7358.02
7361.18
7364.29
7367.34
7370.33
7373.27
7376.16
7379
7381.79
7384.53
7387.22
7389.87
7392.46
7395.01
7397.52
7399.97
7402.39
7404.76
7407.09
7409.37
7411.62
7413.82
7415.98
7418.11
7420.19
7422.23
7424.24
7426.21
7428.14
7430.04
7431.91
7433.74
7435.53
7437.29
7439.02
7440.72
7442.39
7444.03
7445.64
7447.21
7448.75
7450.25
7451.71
7453.13
7454.52
7455.85
7457.14
7458.39
7459.58
7460.73
7461.82
7462.85
7463.83
7464.75
7465.61
7466.41
7467.14
7467.81
7468.41
7468.94
7469.41
7469.8
7470.12
7470.37
7470.54
7470.65
7470.67
7470.62
7470.5
7470.3
7470.03
7469.69
7469.27
7468.78
7468.22
7467.59
7466.89
7466.13
7465.3
7464.41
7463.46
7462.45
7461.39
7460.28
7459.11
7457.9
7456.64
7455.34
7454
7452.62
7451.22
7449.78
7448.31
7446.82
7445.31
7443.79
7442.24
7440.68
7439.12
7437.54
7435.96
7434.38
7432.79
7431.21
7429.63
7428.06
7426.5
7424.95
7423.41
7421.88
7420.37
7418.88
7417.41
7415.95
7414.52
7413.1
7411.71
7410.34
7408.99
7407.67
7406.37
7405.1
7403.85
7402.63
7401.43
7400.26
7399.12
7398
7396.9
7395.84
7394.79
7393.78
7392.78
7391.81
7390.87
7389.95
7389.06
7388.18
7387.33
7386.5
7385.69
7384.9
7384.14
7383.39
7382.66
7381.95
7381.25
7380.58
7379.91
7379.27
7378.64
7378.02
7377.42
7376.83
7376.25
7375.69
7375.13
7374.59
7374.06
7373.54
7373.03
7372.53
7372.04
7371.55
7371.08
7370.6
7370.15
7369.69
7369.24
7368.79
7368.36
7367.93
7367.51
7367.08
7366.67
7366.27
7365.87
7365.48
7365.09
7364.71
7364.33
7363.96
7363.6
7363.25
7362.9
7362.56
7362.23
7361.91
7361.59
7361.33
7361.02
7360.68
7360.38
7360.07
7359.78
7359.5
7359.22
7358.94
7358.68
7358.41
7358.16
7357.91
7357.67
7357.43
7357.2
7357
7356.79
7356.59
7356.39
7356.18
7355.93
7355.85
7355.73
7355.59
7355.45
7355.31
7355.18
7355.06
7354.93
7354.81
7354.68
7354.56
7354.43
7354.3
7354.17
7354.03
7353.9
7353.76
7353.61
7353.46
7353.31
7353.16
7353
7352.83
7352.66
7352.49
7352.31
7352.12
7351.92
7351.72
7351.51
7351.3
7351.07
7350.84
7350.6
7350.35
7350.1
7349.83
7349.56
7349.28
7348.99
7348.69
7348.39
7348.08
7347.76
7347.44
7347.11
7346.77
7346.43
7346.08
7345.72
7345.37
7345.01
7344.65
7344.28
7343.92
7343.55
7343.18
7342.82
7342.45
7342.09
7341.73
7341.38
7341.03
7340.69
7340.35
7340.02
7339.69
7339.38
7339.07
7338.77
7338.48
7338.21
7337.94
7337.69
7337.45
7337.23
7337.01
7336.81
7336.63
7336.46
7336.31
7336.16
7336.04
7335.93
7335.86
7335.74
7335.69
7261.83
7270.57
7275.45
7281.17
7286.76
7292.49
7298.09
7303.59
7308.85
7313.83
7318.68
7323.5
7328.33
7333
7337.48
7341.66
7345.54
7349.37
7353.36
7357.79
7362.6
7367.52
7372.41
7377.11
7381.52
7385.38
7388.9
7392.14
7395.14
7398.11
7401.2
7404.49
7407.86
7411.24
7414.53
7417.64
7420.57
7423.24
7425.68
7427.88
7429.82
7431.6
7433.21
7434.69
7436.01
7437.16
7438.14
7438.96
7439.63
7440.15
7440.49
7440.68
7440.71
7440.57
7440.27
7439.8
7439.19
7438.43
7437.52
7436.44
7435.19
7433.78
7432.23
7430.51
7428.64
7426.65
7424.53
7422.29
7419.91
7417.41
7414.77
7412.01
7409.12
7406.1
7402.95
7399.69
7396.28
7392.72
7389.04
7385.17
7381.15
7377.01
7372.6
7367.87
7363.28
7359.11
7355.32
7351.49
7345.62
7335.35
7331.52
7323.98
7318.02
7311.1
7304.77
7296.96
7290.22
7282.51
7275.19
7267.29
7259.43
7250.93
7242.7
7233.39
7224.5
7214.71
7205.82
7195.89
7188.48
7178.75
7166.16
7155.29
7144.33
7133.62
7123.21
7112.61
7101.99
7091.36
7080.72
7070.24
7059.69
7048.95
7038.5
7028.12
7017.84
7008.73
6998.52
6987.08
6977.2
6967.62
6958.3
6949.26
6940.45
6931.87
6923.59
6915.55
6907.81
6900.31
6893.07
6886.05
6879.26
6872.65
6866.25
6860.02
6853.99
6848.12
6842.44
6836.93
6831.6
6826.46
6821.55
6816.86
6812.41
6808.21
6804.26
6800.58
6797.19
6794.07
6791.25
6788.73
6786.51
6784.58
6782.97
6781.66
6780.67
6779.98
6779.61
6779.54
6779.77
6780.3
6781.13
6782.25
6783.67
6785.37
6787.34
6789.59
6792.09
6794.86
6797.88
6801.13
6804.6
6808.3
6812.22
6816.34
6820.65
6825.15
6829.81
6834.64
6839.63
6844.77
6850.04
6855.43
6860.93
6866.53
6872.22
6877.99
6883.85
6889.77
6895.74
6901.75
6907.8
6913.88
6919.99
6926.11
6932.23
6938.35
6944.45
6950.54
6956.61
6962.66
6968.67
6974.65
6980.57
6986.46
6992.29
6998.06
7003.78
7009.44
7015.04
7020.57
7026.02
7031.41
7036.72
7041.97
7047.15
7052.25
7057.26
7062.2
7067.06
7071.84
7076.56
7081.2
7085.76
7090.25
7094.65
7098.99
7103.24
7107.43
7111.54
7115.59
7119.56
7123.47
7127.3
7131.07
7134.76
7138.4
7141.97
7145.49
7148.94
7152.33
7155.65
7158.92
7162.13
7165.29
7168.39
7171.44
7174.43
7177.37
7180.25
7183.08
7185.87
7188.61
7191.29
7193.93
7196.53
7199.07
7201.58
7204.03
7206.44
7208.81
7211.14
7213.42
7215.66
7217.86
7220.02
7222.14
7224.23
7226.27
7228.27
7230.24
7232.17
7234.07
7235.94
7237.77
7239.56
7241.33
7243.06
7244.76
7246.43
7248.07
7249.68
7251.25
7252.79
7254.29
7255.76
7257.19
7258.57
7259.91
7261.21
7262.46
7263.66
7264.81
7265.9
7266.94
7267.93
7268.85
7269.72
7270.52
7271.26
7271.93
7272.54
7273.08
7273.55
7273.94
7274.27
7274.52
7274.7
7274.8
7274.83
7274.78
7274.66
7274.46
7274.19
7273.84
7273.42
7272.93
7272.36
7271.73
7271.03
7270.26
7269.42
7268.53
7267.57
7266.55
7265.48
7264.36
7263.18
7261.96
7260.69
7259.38
7258.03
7256.64
7255.22
7253.77
7252.3
7250.8
7249.27
7247.73
7246.18
7244.61
7243.03
7241.44
7239.85
7238.25
7236.66
7235.07
7233.48
7231.9
7230.34
7228.78
7227.23
7225.7
7224.18
7222.68
7221.2
7219.74
7218.3
7216.88
7215.49
7214.11
7212.76
7211.43
7210.12
7208.85
7207.59
7206.37
7205.17
7204
7202.85
7201.73
7200.64
7199.57
7198.53
7197.51
7196.51
7195.55
7194.6
7193.68
7192.79
7191.91
7191.06
7190.23
7189.42
7188.64
7187.87
7187.12
7186.39
7185.68
7184.99
7184.31
7183.65
7183
7182.38
7181.76
7181.16
7180.57
7180
7179.43
7178.88
7178.34
7177.81
7177.29
7176.78
7176.28
7175.79
7175.3
7174.83
7174.36
7173.89
7173.44
7173
7172.56
7172.11
7171.68
7171.26
7170.84
7170.43
7170.02
7169.62
7169.22
7168.84
7168.45
7168.09
7167.7
7167.36
7166.98
7166.66
7166.31
7166.02
7165.69
7165.34
7165.02
7164.71
7164.4
7164.1
7163.8
7163.51
7163.23
7162.94
7162.67
7162.39
7162.14
7161.87
7161.65
7161.42
7161.2
7160.97
7160.75
7160.52
7160.24
7160.14
7160.01
7159.85
7159.7
7159.56
7159.41
7159.27
7159.14
7159.01
7158.88
7158.76
7158.63
7158.5
7158.38
7158.25
7158.12
7157.99
7157.86
7157.72
7157.58
7157.44
7157.3
7157.15
7156.99
7156.84
7156.67
7156.51
7156.33
7156.15
7155.97
7155.77
7155.57
7155.37
7155.15
7154.93
7154.7
7154.46
7154.21
7153.95
7153.69
7153.42
7153.14
7152.85
7152.55
7152.24
7151.93
7151.61
7151.28
7150.95
7150.61
7150.26
7149.91
7149.55
7149.19
7148.83
7148.46
7148.09
7147.72
7147.35
7146.97
7146.6
7146.23
7145.87
7145.5
7145.14
7144.79
7144.44
7144.1
7143.76
7143.43
7143.11
7142.8
7142.49
7142.2
7141.92
7141.65
7141.4
7141.16
7140.93
7140.71
7140.51
7140.32
7140.15
7139.99
7139.85
7139.73
7139.61
7139.54
7139.42
7139.37
7065.48
7074.29
7079.19
7084.92
7090.5
7096.18
7101.69
7107.09
7112.32
7117.4
7122.29
7127.26
7132.17
7136.95
7141.55
7146
7150.32
7154.61
7158.96
7163.45
7168.05
7172.7
7177.32
7181.79
7186.02
7189.95
7193.66
7197.17
7200.52
7203.83
7207.16
7210.42
7213.66
7216.86
7219.98
7222.97
7225.81
7228.47
7230.91
7233.09
7235.06
7236.88
7238.52
7240.02
7241.35
7242.53
7243.52
7244.35
7245.01
7245.54
7245.88
7246.08
7246.09
7245.96
7245.66
7245.18
7244.56
7243.79
7242.85
7241.74
7240.47
7239.04
7237.45
7235.72
7233.83
7231.79
7229.61
7227.29
7224.86
7222.28
7219.56
7216.7
7213.71
7210.58
7207.31
7203.91
7200.38
7196.69
7192.82
7188.8
7184.64
7180.37
7175.92
7171.36
7166.67
7161.75
7156.55
7151.26
7146.26
7141.97
7137.96
7131.71
7120.41
7115.88
7107.91
7101.28
7093.89
7086.85
7078.35
7070.77
7062.13
7053.97
7045.17
7036.52
7027.34
7018.31
7008.49
6998.86
6988.79
6979.02
6968.88
6960.79
6950.68
6938.07
6926.89
6915.78
6904.98
6894.36
6883.57
6872.83
6862.1
6851.52
6841.07
6830.71
6820.17
6810.02
6799.84
6789.96
6781
6771.34
6760.87
6751.67
6742.85
6734.25
6725.93
6717.88
6710.05
6702.46
6695.12
6688.06
6681.18
6674.55
6668.07
6661.83
6655.73
6649.86
6644.13
6638.62
6633.26
6628.12
6623.18
6618.49
6614.02
6609.8
6605.84
6602.16
6598.76
6595.64
6592.81
6590.29
6588.06
6586.15
6584.54
6583.24
6582.26
6581.59
6581.23
6581.18
6581.44
6582
6582.86
6584.02
6585.46
6587.2
6589.21
6591.5
6594.05
6596.87
6599.94
6603.23
6606.76
6610.51
6614.48
6618.66
6623.03
6627.58
6632.31
6637.19
6642.23
6647.42
6652.74
6658.19
6663.75
6669.4
6675.14
6680.96
6686.85
6692.82
6698.84
6704.9
6711
6717.13
6723.27
6729.43
6735.59
6741.74
6747.88
6754.01
6760.13
6766.22
6772.27
6778.27
6784.23
6790.15
6796.01
6801.82
6807.57
6813.26
6818.89
6824.44
6829.92
6835.33
6840.68
6845.95
6851.14
6856.26
6861.3
6866.26
6871.14
6875.95
6880.67
6885.33
6889.9
6894.4
6898.82
6903.16
6907.43
6911.63
6915.75
6919.8
6923.78
6927.69
6931.52
6935.29
6938.99
6942.63
6946.2
6949.72
6953.16
6956.55
6959.87
6963.13
6966.34
6969.49
6972.59
6975.63
6978.62
6981.55
6984.43
6987.27
6990.05
6992.78
6995.46
6998.09
7000.68
7003.22
7005.72
7008.18
7010.58
7012.95
7015.27
7017.54
7019.78
7021.98
7024.14
7026.26
7028.34
7030.38
7032.39
7034.35
7036.28
7038.18
7040.05
7041.88
7043.68
7045.44
7047.18
7048.88
7050.55
7052.19
7053.8
7055.38
7056.92
7058.43
7059.9
7061.33
7062.72
7064.06
7065.37
7066.62
7067.83
7068.98
7070.09
7071.13
7072.13
7073.06
7073.93
7074.74
7075.49
7076.17
7076.78
7077.33
7077.8
7078.2
7078.53
7078.79
7078.97
7079.08
7079.11
7079.06
7078.94
7078.74
7078.47
7078.12
7077.69
7077.2
7076.63
7075.99
7075.28
7074.5
7073.66
7072.75
7071.78
7070.75
7069.67
7068.53
7067.34
7066.11
7064.82
7063.5
7062.13
7060.73
7059.3
7057.83
7056.34
7054.82
7053.28
7051.73
7050.16
7048.57
7046.98
7045.38
7043.77
7042.16
7040.56
7038.95
7037.36
7035.77
7034.19
7032.62
7031.06
7029.52
7027.99
7026.49
7025
7023.52
7022.08
7020.65
7019.24
7017.86
7016.5
7015.17
7013.86
7012.58
7011.32
7010.09
7008.89
7007.72
7006.57
7005.44
7004.35
7003.28
7002.24
7001.22
7000.22
6999.25
6998.31
6997.39
6996.49
6995.62
6994.77
6993.94
6993.13
6992.34
6991.58
6990.83
6990.1
6989.39
6988.69
6988.02
6987.36
6986.72
6986.09
6985.48
6984.87
6984.29
6983.71
6983.15
6982.6
6982.06
6981.53
6981.01
6980.51
6980
6979.52
6979.02
6978.56
6978.09
6977.64
6977.17
6976.73
6976.29
6975.85
6975.42
6975
6974.57
6974.16
6973.76
6973.36
6972.97
6972.58
6972.2
6971.82
6971.45
6971.12
6970.77
6970.38
6970.05
6969.69
6969.38
6969.04
6968.74
6968.42
6968.11
6967.81
6967.51
6967.22
6966.93
6966.65
6966.37
6966.13
6965.87
6965.63
6965.38
6965.14
6964.89
6964.59
6964.48
6964.33
6964.16
6964
6963.84
6963.68
6963.53
6963.39
6963.25
6963.11
6962.98
6962.84
6962.71
6962.58
6962.45
6962.33
6962.2
6962.07
6961.94
6961.81
6961.68
6961.55
6961.41
6961.28
6961.13
6960.99
6960.84
6960.69
6960.53
6960.36
6960.19
6960.01
6959.83
6959.64
6959.44
6959.24
6959.03
6958.81
6958.58
6958.34
6958.09
6957.83
6957.57
6957.3
6957.01
6956.72
6956.42
6956.11
6955.8
6955.47
6955.14
6954.8
6954.46
6954.11
6953.75
6953.39
6953.02
6952.65
6952.28
6951.9
6951.52
6951.14
6950.76
6950.39
6950.01
6949.63
6949.26
6948.9
6948.53
6948.18
6947.82
6947.48
6947.15
6946.82
6946.5
6946.19
6945.89
6945.61
6945.34
6945.07
6944.83
6944.59
6944.37
6944.17
6943.98
6943.8
6943.64
6943.5
6943.37
6943.25
6943.18
6943.06
6943.01
6869.13
6878.02
6882.94
6888.71
6894.28
6899.95
6905.44
6910.83
6916.1
6921.24
6926.29
6931.37
6936.36
6941.25
6946.03
6950.7
6955.27
6959.82
6964.37
6968.94
6973.51
6978.06
6982.55
6986.91
6991.08
6995.07
6998.91
7002.59
7006.12
7009.58
7012.97
7016.28
7019.53
7022.7
7025.77
7028.72
7031.52
7034.13
7036.53
7038.71
7040.71
7042.55
7044.22
7045.73
7047.07
7048.26
7049.27
7050.11
7050.79
7051.32
7051.67
7051.85
7051.88
7051.74
7051.43
7050.94
7050.31
7049.51
7048.55
7047.42
7046.14
7044.68
7043.07
7041.31
7039.39
7037.3
7035.07
7032.68
7030.16
7027.5
7024.68
7021.72
7018.61
7015.37
7011.96
7008.41
7004.73
7000.9
6996.9
6992.76
6988.47
6984.04
6979.45
6974.72
6969.82
6964.73
6959.55
6954.35
6949.17
6943.73
6937.85
6932.2
6927.26
6922.69
6915.94
6903.83
6898.33
6889.9
6882.29
6874.15
6866.32
6856.99
6848.66
6839.15
6830.32
6820.7
6811.51
6801.47
6791.96
6781.91
6771.8
6761.25
6750.91
6740.34
6731.62
6721.11
6708.55
6697.17
6686.17
6675.35
6664.73
6654.01
6643.42
6632.84
6622.52
6612.33
6602.29
6592.15
6582.42
6572.6
6563.21
6554.57
6545.5
6535.95
6527.48
6519.12
6511.57
6503.89
6496.61
6489.42
6482.5
6475.76
6469.28
6462.95
6456.87
6450.92
6445.2
6439.62
6434.27
6429.11
6424.18
6419.46
6414.99
6410.75
6406.79
6403.09
6399.69
6396.56
6393.74
6391.21
6388.98
6387.07
6385.48
6384.21
6383.24
6382.59
6382.26
6382.23
6382.52
6383.12
6384.03
6385.23
6386.72
6388.5
6390.56
6392.91
6395.53
6398.41
6401.53
6404.89
6408.49
6412.3
6416.34
6420.59
6425.04
6429.67
6434.47
6439.42
6444.52
6449.77
6455.16
6460.68
6466.31
6472.03
6477.83
6483.71
6489.67
6495.69
6501.77
6507.89
6514.06
6520.23
6526.43
6532.63
6538.84
6545.04
6551.24
6557.43
6563.59
6569.72
6575.81
6581.86
6587.86
6593.82
6599.73
6605.58
6611.37
6617.09
6622.75
6628.34
6633.85
6639.3
6644.67
6649.97
6655.19
6660.34
6665.4
6670.39
6675.3
6680.13
6684.87
6689.54
6694.13
6698.64
6703.07
6707.43
6711.71
6715.92
6720.05
6724.11
6728.09
6732
6735.85
6739.62
6743.32
6746.96
6750.54
6754.04
6757.49
6760.87
6764.19
6767.45
6770.66
6773.8
6776.89
6779.93
6782.91
6785.84
6788.72
6791.54
6794.32
6797.04
6799.72
6802.35
6804.93
6807.46
6809.96
6812.41
6814.81
6817.17
6819.48
6821.76
6823.99
6826.19
6828.34
6830.46
6832.54
6834.58
6836.58
6838.55
6840.48
6842.38
6844.24
6846.08
6847.88
6849.65
6851.38
6853.09
6854.77
6856.41
6858.02
6859.6
6861.14
6862.65
6864.13
6865.56
6866.96
6868.31
6869.62
6870.88
6872.1
6873.26
6874.37
6875.43
6876.43
6877.38
6878.26
6879.08
6879.84
6880.53
6881.15
6881.7
6882.18
6882.59
6882.92
6883.19
6883.37
6883.48
6883.51
6883.47
6883.34
6883.15
6882.87
6882.52
6882.09
6881.59
6881.01
6880.36
6879.64
6878.86
6878
6877.08
6876.1
6875.06
6873.96
6872.81
6871.6
6870.34
6869.04
6867.7
6866.31
6864.89
6863.44
6861.95
6860.44
6858.9
6857.35
6855.77
6854.18
6852.58
6850.97
6849.35
6847.73
6846.11
6844.48
6842.86
6841.25
6839.64
6838.05
6836.47
6834.89
6833.34
6831.8
6830.28
6828.78
6827.29
6825.84
6824.4
6822.99
6821.6
6820.23
6818.89
6817.58
6816.29
6815.03
6813.8
6812.59
6811.41
6810.26
6809.13
6808.03
6806.96
6805.92
6804.9
6803.9
6802.93
6801.99
6801.07
6800.17
6799.3
6798.45
6797.62
6796.81
6796.02
6795.26
6794.51
6793.78
6793.07
6792.38
6791.71
6791.05
6790.41
6789.78
6789.16
6788.57
6787.98
6787.41
6786.85
6786.31
6785.77
6785.24
6784.72
6784.21
6783.71
6783.23
6782.75
6782.28
6781.81
6781.36
6780.9
6780.45
6780.01
6779.57
6779.13
6778.71
6778.29
6777.88
6777.47
6777.07
6776.66
6776.29
6775.92
6775.57
6775.15
6774.81
6774.44
6774.1
6773.75
6773.43
6773.08
6772.76
6772.43
6772.12
6771.81
6771.5
6771.2
6770.9
6770.63
6770.35
6770.09
6769.8
6769.53
6769.19
6769.05
6768.9
6768.72
6768.52
6768.34
6768.16
6767.99
6767.82
6767.67
6767.51
6767.36
6767.21
6767.07
6766.93
6766.8
6766.66
6766.53
6766.4
6766.27
6766.15
6766.02
6765.9
6765.77
6765.64
6765.52
6765.39
6765.25
6765.12
6764.98
6764.84
6764.7
6764.55
6764.39
6764.23
6764.07
6763.89
6763.71
6763.53
6763.33
6763.13
6762.92
6762.7
6762.48
6762.24
6761.99
6761.74
6761.47
6761.2
6760.91
6760.62
6760.32
6760.01
6759.69
6759.36
6759.02
6758.68
6758.32
6757.97
6757.6
6757.23
6756.86
6756.48
6756.1
6755.71
6755.33
6754.94
6754.55
6754.16
6753.78
6753.39
6753.01
6752.63
6752.26
6751.9
6751.54
6751.18
6750.84
6750.5
6750.18
6749.86
6749.56
6749.27
6748.98
6748.72
6748.46
6748.22
6748
6747.79
6747.59
6747.41
6747.25
6747.1
6746.97
6746.85
6746.78
6746.66
6746.6
6672.79
6681.79
6686.75
6692.58
6698.16
6703.85
6709.37
6714.81
6720.16
6725.4
6730.6
6735.77
6740.85
6745.85
6750.78
6755.61
6760.38
6765.09
6769.76
6774.4
6779
6783.54
6787.99
6792.33
6796.54
6800.58
6804.51
6808.31
6811.97
6815.54
6819.01
6822.38
6825.66
6828.84
6831.93
6834.86
6837.62
6840.18
6842.55
6844.73
6846.75
6848.61
6850.3
6851.82
6853.16
6854.35
6855.37
6856.25
6856.95
6857.49
6857.84
6858.01
6858.03
6857.87
6857.55
6857.07
6856.42
6855.62
6854.64
6853.5
6852.2
6850.72
6849.08
6847.28
6845.31
6843.17
6840.86
6838.41
6835.8
6833.06
6830.15
6827.08
6823.86
6820.49
6816.98
6813.3
6809.48
6805.51
6801.38
6797.09
6792.65
6788.06
6783.32
6778.42
6773.39
6768.22
6762.91
6757.5
6751.97
6746.18
6740.37
6734.54
6728.43
6721.93
6715.66
6710.04
6704.94
6697.89
6684.95
6678.31
6669.24
6660.94
6652.07
6643.56
6633.5
6624.48
6614.38
6604.93
6594.84
6585.02
6574.74
6564.52
6554.24
6543.38
6532.56
6521.5
6510.79
6501.43
6490.77
6478.3
6467
6456.26
6445.63
6435.22
6424.7
6414.45
6404.18
6394.25
6384.42
6374.79
6365.1
6355.79
6346.39
6337.59
6328.96
6321.06
6312.87
6304.66
6297.12
6290.1
6283.05
6276.36
6269.73
6263.38
6257.17
6251.25
6245.45
6239.91
6234.51
6229.36
6224.4
6219.7
6215.21
6210.98
6207.01
6203.32
6199.91
6196.8
6193.99
6191.47
6189.25
6187.36
6185.79
6184.54
6183.6
6182.98
6182.67
6182.68
6183.01
6183.66
6184.62
6185.88
6187.42
6189.26
6191.39
6193.81
6196.51
6199.46
6202.66
6206.1
6209.78
6213.68
6217.8
6222.13
6226.67
6231.39
6236.28
6241.32
6246.51
6251.84
6257.31
6262.9
6268.61
6274.41
6280.3
6286.27
6292.3
6298.4
6304.54
6310.73
6316.96
6323.2
6329.46
6335.73
6342
6348.26
6354.53
6360.77
6366.99
6373.17
6379.31
6385.4
6391.46
6397.47
6403.43
6409.33
6415.17
6420.93
6426.63
6432.26
6437.82
6443.31
6448.71
6454.05
6459.3
6464.47
6469.57
6474.59
6479.53
6484.39
6489.16
6493.84
6498.45
6502.97
6507.43
6511.8
6516.1
6520.32
6524.46
6528.52
6532.51
6536.43
6540.28
6544.06
6547.76
6551.4
6554.97
6558.48
6561.92
6565.3
6568.62
6571.88
6575.08
6578.22
6581.3
6584.33
6587.31
6590.23
6593.11
6595.92
6598.69
6601.4
6604.07
6606.7
6609.27
6611.8
6614.29
6616.73
6619.12
6621.48
6623.79
6626.06
6628.29
6630.48
6632.63
6634.74
6636.82
6638.86
6640.86
6642.83
6644.76
6646.66
6648.53
6650.36
6652.17
6653.94
6655.68
6657.39
6659.07
6660.71
6662.33
6663.91
6665.46
6666.98
6668.46
6669.9
6671.3
6672.66
6673.98
6675.25
6676.47
6677.65
6678.77
6679.84
6680.85
6681.81
6682.7
6683.53
6684.3
6685
6685.63
6686.19
6686.68
6687.1
6687.44
6687.71
6687.9
6688.01
6688.05
6688
6687.88
6687.68
6687.4
6687.05
6686.61
6686.1
6685.52
6684.86
6684.13
6683.33
6682.47
6681.53
6680.53
6679.47
6678.35
6677.18
6675.95
6674.68
6673.35
6671.99
6670.58
6669.14
6667.66
6666.15
6664.61
6663.05
6661.47
6659.87
6658.26
6656.63
6655
6653.36
6651.72
6650.07
6648.43
6646.79
6645.16
6643.53
6641.92
6640.31
6638.73
6637.15
6635.6
6634.06
6632.55
6631.06
6629.58
6628.14
6626.71
6625.32
6623.94
6622.6
6621.28
6619.99
6618.72
6617.48
6616.27
6615.08
6613.93
6612.8
6611.7
6610.62
6609.58
6608.55
6607.56
6606.59
6605.64
6604.72
6603.83
6602.95
6602.1
6601.27
6600.46
6599.68
6598.91
6598.17
6597.44
6596.73
6596.04
6595.37
6594.71