0 	1.000003
0.006666667 	1.000003
0.01333333 	1.000003
0.02 	1.000003
0.02666667 	1.000003
0.03333333 	1.000002
0.04 	1.000002
0.04666667 	1.000002
0.05333333 	1.000002
0.06 	1.000001
0.06666667 	1.000001
0.07333333 	1.000001
0.08 	1
0.08666667 	0.9999996
0.09333333 	0.9999991
0.1 	0.9999986
0.1066667 	0.9999986
0.1133333 	0.9999986
0.12 	0.9999986
0.1266667 	0.9999987
0.1333333 	0.9999987
0.14 	0.9999991
0.1466667 	0.9999994
0.1533333 	0.9999998
0.16 	1
0.1666667 	1.000001
0.1733333 	1
0.18 	1
0.1866667 	1
0.1933333 	1
0.2 	1
0.2066667 	1
0.2133333 	1
0.22 	1.000001
0.2266667 	1.000001
0.2333333 	1.000001
0.24 	1.000001
0.2466667 	1.000001
0.2533333 	1.000001
0.26 	1.000001
0.2666667 	1.000001
0.2733333 	1.000001
0.28 	1.000001
0.2866667 	1.000001
0.2933333 	1.000001
0.3 	1
0.3066667 	1
0.3133333 	1
0.32 	1
0.3266667 	0.9999999
0.3333333 	0.9999998
0.34 	0.9999999
0.3466667 	1
0.3533333 	1
0.36 	1
0.3666667 	1
0.3733333 	1.000001
0.38 	1.000001
0.3866667 	1.000001
0.3933333 	1.000001
0.4 	1.000002
0.4066667 	1.000002
0.4133333 	1.000002
0.42 	1.000003
0.4266667 	1.000003
0.4333333 	1.000003
0.44 	1.000004
0.4466667 	1.000005
0.4533333 	1.000005
0.46 	1.000006
0.4666667 	1.000006
0.4733333 	1.000006
0.48 	1.000007
0.4866667 	1.000007
0.4933333 	1.000007
0.5 	1.000008
0.5066667 	1.000007
0.5133333 	1.000007
0.52 	1.000007
0.5266667 	1.000007
0.5333333 	1.000007
0.54 	1.000007
0.5466667 	1.000007
0.5533333 	1.000007
0.56 	1.000007
0.5666667 	1.000006
0.5733333 	1.000006
0.58 	1.000006
0.5866667 	1.000006
0.5933333 	1.000005
0.6 	1.000005
0.6066667 	1.000005
0.6133333 	1.000005
0.62 	1.000004
0.6266667 	1.000004
0.6333333 	1.000003
0.64 	1.000003
0.6466667 	1.000003
0.6533333 	1.000002
0.66 	1.000002
0.6666667 	1.000002
0.6733333 	1.000001
0.68 	1.000001
0.6866667 	1.000001
0.6933333 	1
0.7 	0.9999998
0.7066667 	0.9999503
0.7133333 	0.9999008
0.72 	0.9998512
0.7266667 	0.9998017
0.7333333 	0.9997522
0.74 	0.9969889
0.7466667 	0.9942256
0.7533333 	0.9914623
0.76 	0.9886991
0.7666667 	0.9859358
0.7733333 	0.9484804
0.78 	0.911025
0.7866667 	0.8735696
0.7933333 	0.8361143
0.8 	0.7986589
0.8066667 	0.7105285
0.8133333 	0.622398
0.82 	0.5342676
0.8266667 	0.4461372
0.8333333 	0.3580068
0.84 	0.2957387
0.8466667 	0.2334706
0.8533333 	0.1712025
0.86 	0.1089344
0.8666667 	0.04666627
0.8733333 	0.03756137
0.88 	0.02845648
0.8866667 	0.01935158
0.8933333 	0.01024668
0.9 	0.001141784
0.9066667 	0.0009147616
0.9133333 	0.0006877392
0.92 	0.0004607168
0.9266667 	0.0002336944
0.9333333 	6.67199e-06
0.94 	5.369451e-06
0.9466667 	4.066912e-06
0.9533333 	2.764373e-06
0.96 	1.461834e-06
0.9666667 	1.592947e-07
0.9733333 	1.299402e-07
0.98 	1.005856e-07
0.9866667 	7.123107e-08
0.9933333 	4.187653e-08
1 	1.252198e-08
1.006667 	1.018185e-08
1.013333 	7.841721e-09
1.02 	5.501592e-09
1.026667 	3.161463e-09
1.033333 	8.213338e-10
1.04 	6.600427e-10
1.046667 	4.987517e-10
1.053333 	3.374607e-10
1.06 	1.761697e-10
1.066667 	1.487866e-11
1.073333 	1.19088e-11
1.08 	8.93895e-12
1.086667 	5.969101e-12
1.093333 	2.999252e-12
1.1 	2.940326e-14
1.106667 	2.352437e-14
1.113333 	1.764548e-14
1.12 	1.176659e-14
1.126667 	5.887706e-15
1.133333 	8.819362e-18
1.14 	7.067454e-18
1.146667 	5.315546e-18
1.153333 	3.563638e-18
1.16 	1.81173e-18
1.166667 	5.982263e-20
1.173333 	4.790212e-20
1.18 	3.598171e-20
1.186667 	2.406129e-20
1.193333 	1.214087e-20
1.2 	2.204552e-22
1.206667 	1.763869e-22
1.213333 	1.323187e-22
1.22 	8.825048e-23
1.226667 	4.418225e-23
1.233333 	1.140317e-25
1.24 	9.122664e-26
1.246667 	6.842155e-26
1.253333 	4.561647e-26
1.26 	2.281138e-26
1.266667 	6.292459e-30
1.273333 	5.033119e-30
1.28 	3.774919e-30
1.286667 	2.516719e-30
1.293333 	1.258519e-30
1.3 	3.186771e-34
1.306667 	2.549447e-34
1.313333 	1.912123e-34
1.32 	1.274799e-34
1.326667 	6.374744e-35
1.333333 	1.501627e-38
1.34 	1.201314e-38
1.346667 	9.010015e-39
1.353333 	6.006887e-39
1.36 	3.003758e-39
1.366667 	6.299862e-43
1.373333 	5.038734e-43
1.38 	3.779108e-43
1.386667 	2.519482e-43
1.393333 	1.259856e-43
1.4 	2.304101e-47
1.406667 	1.843295e-47
1.413333 	1.38249e-47
1.42 	9.216842e-48
1.426667 	4.608786e-48
1.433333 	7.298124e-52
1.44 	5.83854e-52
1.446667 	4.378956e-52
1.453333 	2.919371e-52
1.46 	1.459787e-52
1.466667 	2.026291e-56
1.473333 	1.620459e-56
1.48 	1.215357e-56
1.486667 	8.102545e-57
1.493333 	4.051523e-57
1.5 	5.012742e-61
1.506667 	4.010216e-61
1.513333 	3.00769e-61
1.52 	2.005164e-61
1.526667 	1.002638e-61
1.533333 	1.119648e-65
1.54 	8.957231e-66
1.546667 	6.71798e-66
1.553333 	4.47873e-66
1.56 	2.239479e-66
1.566667 	2.278168e-70
1.573333 	1.821647e-70
1.58 	1.366246e-70
1.586667 	9.108447e-71
1.593333 	4.554436e-71
1.6 	4.245557e-75
1.606667 	3.39646e-75
1.613333 	2.547363e-75
1.62 	1.698267e-75
1.626667 	8.491699e-76
1.633333 	7.32913e-80
1.64 	5.863328e-80
1.646667 	4.397526e-80
1.653333 	2.931723e-80
1.66 	1.465921e-80
1.666667 	1.186411e-84
1.673333 	9.485458e-85
1.68 	7.114139e-85
1.686667 	4.74282e-85
1.693333 	2.371501e-85
1.7 	1.821894e-89
1.706667 	1.457521e-89
1.713333 	1.093147e-89
1.72 	7.28774e-90
1.726667 	3.644005e-90
1.733333 	2.699664e-94
1.74 	2.159739e-94
1.746667 	1.619814e-94
1.753333 	1.079889e-94
1.76 	5.39964e-95
1.766667 	3.912559e-99
1.773333 	3.127899e-99
1.78 	2.345938e-99
1.786667 	1.563977e-99
1.793333 	7.820167e-100
1.8 	5.592545e-104
1.806667 	4.474052e-104
1.813333 	3.355559e-104
1.82 	2.237066e-104
1.826667 	1.118572e-104
1.833333 	7.950028e-109
1.84 	6.360045e-109
1.846667 	4.770062e-109
1.853333 	3.180079e-109
1.86 	1.590096e-109
1.866667 	1.124953e-113
1.873333 	8.993298e-114
1.88 	6.745013e-114
1.886667 	4.496728e-114
1.893333 	2.248443e-114
1.9 	1.575367e-118
1.906667 	1.260298e-118
1.913333 	9.452287e-119
1.92 	6.301597e-119
1.926667 	3.150907e-119
1.933333 	2.173358e-123
1.94 	1.738693e-123
1.946667 	1.304027e-123
1.953333 	8.69361e-124
1.96 	4.346952e-124
1.966667 	2.934237e-128
1.973333 	2.345666e-128
1.98 	1.759268e-128
1.986667 	1.17287e-128
1.993333 	5.864725e-129
2 	7.470975e-133
