/*--------------------------------*- C++ -*----------------------------------*\
| =========                 |                                                 |
| \\      /  F ield         | OpenFOAM: The Open Source CFD Toolbox           |
|  \\    /   O peration     | Version:  v2006                                 |
|   \\  /    A nd           | Website:  www.openfoam.com                      |
|    \\/     M anipulation  |                                                 |
\*---------------------------------------------------------------------------*/
FoamFile
{
    version     2.0;
    format      ascii;
    class       volScalarField;
    location    "6.5";
    object      omega;
}
// * * * * * * * * * * * * * * * * * * * * * * * * * * * * * * * * * * * * * //

dimensions      [0 0 -1 0 0 0 0];


internalField   nonuniform List<scalar> 
33000
(
0.802394
0.803482
0.804063
0.804359
0.804543
0.80472
0.804944
0.805255
0.805662
0.806171
0.806804
0.807569
0.808451
0.809307
0.809867
0.810215
0.810631
0.811384
0.813293
0.818006
0.826591
0.835837
0.841865
0.844837
0.846058
0.846614
0.847053
0.847438
0.847686
0.847732
0.847542
0.847223
0.846847
0.846485
0.846238
0.846189
0.846372
0.846718
0.84702
0.847116
0.846981
0.846803
0.846739
0.846781
0.846847
0.846756
0.84644
0.845975
0.845493
0.845106
0.844871
0.844832
0.844978
0.845252
0.845528
0.845641
0.84546
0.844935
0.844081
0.842915
0.841418
0.839579
0.837439
0.835066
0.832518
0.830341
0.8286
0.827059
0.825571
0.824113
0.822751
0.82151
0.82056
0.820055
0.820052
0.82054
0.821612
0.823533
0.826197
0.828433
0.830973
0.832358
0.833673
0.834627
0.835179
0.835339
0.835208
0.834825
0.834183
0.833224
0.831803
0.830023
0.82807
0.826165
0.824208
0.822649
0.821508
0.820839
0.820688
0.821684
0.823459
0.823672
0.823648
0.823753
0.824117
0.824344
0.824259
0.823982
0.823664
0.82333
0.822983
0.822559
0.821943
0.821043
0.820122
0.819489
0.819356
0.820035
0.820994
0.821022
0.821098
0.821143
0.821332
0.821549
0.821699
0.821806
0.821888
0.821947
0.822021
0.822095
0.822152
0.822192
0.822216
0.82223
0.822237
0.822239
0.822242
0.822242
0.822237
0.822228
0.82221
0.822186
0.82216
0.822128
0.822088
0.82204
0.821989
0.821943
0.8219
0.821851
0.821794
0.82173
0.821666
0.821606
0.821547
0.821485
0.821416
0.821344
0.82127
0.821194
0.821117
0.821041
0.820965
0.820886
0.820801
0.820713
0.820626
0.820539
0.820444
0.820339
0.820232
0.820131
0.820034
0.819929
0.819815
0.819702
0.819597
0.819503
0.81941
0.81932
0.819236
0.819159
0.819084
0.819005
0.818928
0.818863
0.818812
0.818769
0.818723
0.818673
0.81862
0.818567
0.818518
0.818471
0.818421
0.818358
0.818285
0.8182
0.818108
0.818022
0.817945
0.817867
0.817773
0.817661
0.817537
0.817414
0.817299
0.817188
0.817071
0.816942
0.816812
0.816696
0.816598
0.8165
0.816388
0.816278
0.816184
0.816108
0.816052
0.816006
0.815957
0.815908
0.815871
0.815852
0.815849
0.815858
0.815865
0.815866
0.815868
0.815872
0.815884
0.815905
0.81593
0.815944
0.815951
0.815957
0.815963
0.815968
0.815975
0.815977
0.815974
0.81597
0.815963
0.815949
0.815928
0.815904
0.81588
0.815858
0.815836
0.815804
0.815762
0.815722
0.815684
0.815645
0.815604
0.81556
0.81551
0.815459
0.815407
0.815356
0.815303
0.815249
0.815191
0.815131
0.815071
0.815013
0.814956
0.814896
0.814828
0.814756
0.814685
0.814614
0.814542
0.81447
0.814395
0.814315
0.814232
0.814146
0.814059
0.813969
0.813877
0.813784
0.81369
0.813591
0.813487
0.813379
0.81327
0.813158
0.813044
0.812927
0.812806
0.812679
0.812547
0.812411
0.812272
0.812129
0.811981
0.811827
0.811666
0.8115
0.811328
0.811149
0.810964
0.810769
0.810566
0.810354
0.810135
0.809916
0.809701
0.809494
0.809296
0.809107
0.808926
0.808754
0.80859
0.808436
0.808291
0.808156
0.808029
0.807911
0.807803
0.807703
0.807613
0.807531
0.807457
0.807393
0.807337
0.807287
0.807243
0.807205
0.807172
0.807143
0.807117
0.807095
0.807077
0.80706
0.807044
0.807027
0.807008
0.806987
0.806963
0.806937
0.806909
0.806879
0.806848
0.806815
0.80678
0.806744
0.806707
0.806668
0.806628
0.806586
0.806543
0.806499
0.806453
0.806406
0.806358
0.806308
0.806258
0.806207
0.806155
0.806102
0.806048
0.805993
0.805938
0.805883
0.805826
0.80577
0.805713
0.805656
0.805599
0.805542
0.805484
0.805426
0.805368
0.805309
0.805252
0.805195
0.80514
0.805086
0.805034
0.804982
0.804932
0.804884
0.804836
0.80479
0.804746
0.804702
0.80466
0.804619
0.80458
0.804542
0.804505
0.804469
0.804435
0.804402
0.804371
0.804342
0.804314
0.804287
0.804262
0.804236
0.804211
0.804185
0.804158
0.804131
0.804103
0.804074
0.804045
0.804016
0.803986
0.803956
0.803926
0.803895
0.803863
0.803832
0.803799
0.803768
0.803733
0.803696
0.803664
0.803629
0.803595
0.803566
0.803514
0.803463
0.803445
0.803385
0.803371
0.803342
0.803434
0.803471
0.803522
0.80354
0.803555
0.803552
0.803544
0.803532
0.803521
0.803508
0.803493
0.80349
0.803461
0.803421
0.803416
0.80337
0.803351
0.803305
0.803402
0.803452
0.803529
0.803575
0.803614
0.80364
0.803663
0.80368
0.803693
0.803687
0.803688
0.803679
0.803669
0.803681
0.803663
0.803593
0.803563
0.80349
0.803461
0.803456
0.803586
0.803756
0.80416
0.804582
0.80499
0.80535
0.805648
0.805886
0.806076
0.806227
0.806346
0.806437
0.806508
0.806566
0.806611
0.806647
0.806675
0.806695
0.806711
0.806723
0.806732
0.806735
0.806735
0.806736
0.806735
0.806732
0.806727
0.80672
0.806713
0.806705
0.806696
0.806686
0.806676
0.806664
0.80665
0.806634
0.806618
0.806602
0.806586
0.806569
0.806552
0.806534
0.806515
0.806497
0.806479
0.806459
0.80644
0.806423
0.806405
0.806387
0.806368
0.806349
0.806329
0.806309
0.806289
0.806268
0.806248
0.806228
0.806207
0.806187
0.806166
0.806145
0.806125
0.806105
0.806085
0.806065
0.806046
0.806026
0.806007
0.805989
0.80597
0.805951
0.805933
0.805914
0.805895
0.805875
0.805856
0.805838
0.805823
0.8058
0.805766
0.805652
0.369002
0.682929
0.787454
0.822106
0.798813
0.723966
0.641164
0.613318
0.67063
0.793103
0.928168
1.05697
1.17687
1.30175
1.4113
1.44898
1.41791
1.36113
1.27033
1.1624
1.09765
1.06376
1.01297
0.934019
0.839999
0.758657
0.712354
0.702264
0.707258
0.703059
0.66688
0.611286
0.564916
0.527088
0.495414
0.49155
0.51433
0.535941
0.533815
0.508543
0.468205
0.438878
0.440425
0.461428
0.475475
0.470583
0.449774
0.416455
0.387923
0.374255
0.371004
0.374541
0.382394
0.397769
0.415006
0.422791
0.423786
0.42503
0.432978
0.450419
0.470076
0.483989
0.494495
0.508595
0.533194
0.571337
0.624677
0.689899
0.762437
0.83427
0.894571
0.932532
0.95812
0.986758
1.02335
1.06844
1.12085
1.17938
1.2281
1.29321
1.31185
1.33519
1.26473
1.20179
1.10524
0.988614
0.829685
0.652958
0.495066
0.395094
0.353585
0.360261
0.408822
0.493709
0.603555
0.719853
0.825972
0.906956
0.952084
0.993083
1.00077
0.951186
0.832404
0.657167
0.523428
0.372881
0.261205
0.204631
0.179758
0.155958
0.147812
0.156835
0.172338
0.194127
0.213719
0.22573
0.232101
0.243291
0.255843
0.247793
0.20758
0.1762
0.169669
0.151631
0.137126
0.132317
0.124826
0.120796
0.120173
0.118072
0.116877
0.116671
0.115956
0.116434
0.116869
0.117314
0.117543
0.117535
0.117723
0.117687
0.117816
0.117721
0.117486
0.117109
0.116711
0.11651
0.116583
0.116742
0.116796
0.116586
0.116275
0.116234
0.116405
0.116614
0.116743
0.116822
0.116933
0.117049
0.117131
0.117177
0.117225
0.117343
0.117463
0.117438
0.117354
0.117352
0.117389
0.11731
0.117065
0.116815
0.116649
0.116516
0.11629
0.115901
0.115404
0.114897
0.114447
0.114002
0.113462
0.112807
0.112065
0.111233
0.110269
0.109165
0.108059
0.107093
0.106223
0.105282
0.104147
0.102851
0.101559
0.1004
0.0993746
0.0983699
0.0972352
0.0959054
0.0944612
0.0930645
0.0918544
0.090834
0.0898663
0.0888027
0.0875645
0.0861885
0.0848144
0.0835759
0.0824856
0.081423
0.0802776
0.0790397
0.0778493
0.0767741
0.075684
0.0744517
0.0730663
0.0717677
0.07074
0.069921
0.0690458
0.067884
0.0665073
0.0651839
0.0641181
0.0633141
0.0626284
0.0618599
0.0609099
0.059866
0.0588882
0.0581139
0.0575768
0.0571175
0.0565647
0.0559133
0.0552598
0.0547019
0.0542961
0.054039
0.053827
0.0535826
0.0533596
0.0532014
0.0530556
0.0528645
0.0526636
0.0525431
0.0526109
0.0527914
0.0528434
0.0527198
0.0525896
0.0525857
0.0527044
0.0528422
0.0529194
0.0529283
0.052893
0.0528642
0.052888
0.0529434
0.0529741
0.0529308
0.0528274
0.0527642
0.0528315
0.0530159
0.053185
0.0531569
0.0529495
0.0527431
0.0526577
0.0527283
0.052916
0.0530789
0.0531076
0.0530408
0.0529675
0.0529234
0.0528967
0.0528759
0.0529269
0.0531074
0.0532809
0.053285
0.0531658
0.053066
0.0530482
0.0531135
0.0532551
0.0533981
0.0534356
0.0533646
0.0532795
0.0532437
0.053296
0.0534141
0.053471
0.0534383
0.0533661
0.0532647
0.0532029
0.0532045
0.0531539
0.0530174
0.052835
0.052675
0.0525189
0.0523072
0.0520254
0.0517118
0.0514601
0.0512782
0.0510667
0.0507317
0.0503216
0.049972
0.0496993
0.0494075
0.0490913
0.048779
0.0485189
0.048334
0.0481351
0.0478974
0.0477041
0.0476279
0.0476354
0.0476076
0.0475381
0.047512
0.0476034
0.0478282
0.0480342
0.0480976
0.0480441
0.0479778
0.0479582
0.0479751
0.048005
0.0479607
0.0478221
0.0476596
0.0475125
0.0474347
0.0473647
0.0471725
0.0468931
0.0466201
0.0464251
0.0462866
0.0461102
0.045836
0.045544
0.0453542
0.0451851
0.0449429
0.044691
0.0444652
0.0442439
0.0440035
0.0437647
0.0435395
0.0433207
0.0431234
0.0429195
0.0426943
0.0424402
0.04219
0.0419514
0.0417335
0.0414989
0.0412186
0.0409065
0.0406069
0.0403348
0.0400571
0.0397727
0.039493
0.0392309
0.038956
0.0386223
0.0382554
0.0379031
0.0375903
0.0372897
0.0369869
0.0366803
0.0363292
0.0359654
0.0356401
0.0353512
0.0350114
0.0346399
0.0343102
0.0340039
0.0336709
0.0333704
0.0330963
0.0328045
0.0324826
0.0321395
0.031803
0.0315124
0.031243
0.0309628
0.0307005
0.0303628
0.0300439
0.0297255
0.0294686
0.0292342
0.028988
0.028775
0.0284437
0.0282288
0.0280785
0.0278658
0.0278681
0.0277702
0.0271628
0.0270418
0.0270242
0.0267888
0.0286339
0.0293837
0.0268274
0.0284394
0.0279215
0.0277028
0.0286896
0.029919
0.029066
0.0272656
0.0260025
0.0252153
0.0248785
0.0247302
0.0246708
0.0246884
0.0248555
0.0249272
0.0267199
0.0287907
0.026443
0.027846
0.0281232
0.027751
0.0277956
0.0281141
0.0280313
0.0266845
0.0257157
0.0250234
0.0246833
0.0246465
0.0246292
0.0250371
0.0254083
0.0249838
0.0255859
0.0255221
0.0276463
0.0416484
0.0457381
0.047746
0.0494252
0.0518661
0.0551036
0.0584516
0.0624461
0.0644546
0.06351
0.0577322
0.0495039
0.0420261
0.0364061
0.0325702
0.03004
0.0283961
0.0273327
0.026656
0.0262297
0.0259653
0.0258284
0.0257884
0.0258072
0.0258808
0.0259895
0.0261057
0.0262043
0.0263161
0.0264598
0.0266175
0.0267664
0.0268954
0.0270088
0.0271153
0.0272152
0.0273108
0.0273979
0.0274897
0.0275274
0.0274872
0.0274176
0.0273678
0.0273572
0.0273882
0.027446
0.02751
0.0275735
0.027642
0.0277205
0.0278063
0.0278645
0.0279529
0.0281062
0.0282689
0.0283793
0.028426
0.028422
0.028388
0.0283475
0.0283233
0.0283334
0.0283821
0.0284517
0.0285078
0.0285229
0.028507
0.0285055
0.0285637
0.0286831
0.0288021
0.0288506
0.0288294
0.0288127
0.0288585
0.0289211
0.0289217
0.0288564
0.0288249
0.0287749
0.0286308
0.028419
0.0283128
0.0284193
0.0286705
0.0294794
0.0305242
0.0306856
0.21748
0.301078
0.332315
0.362938
0.373586
0.36396
0.344121
0.339806
0.373756
0.452834
0.574286
0.733898
0.906645
1.06691
1.19348
1.27288
1.28894
1.23197
1.13297
1.0584
0.965202
0.849681
0.733803
0.622763
0.528103
0.465669
0.434185
0.425668
0.424965
0.41611
0.391976
0.359193
0.329554
0.308596
0.296702
0.293288
0.295262
0.299088
0.296737
0.286248
0.269651
0.254187
0.249037
0.253677
0.257201
0.253869
0.244677
0.229017
0.211996
0.200108
0.195189
0.195793
0.199518
0.204613
0.208378
0.211131
0.213044
0.216003
0.225686
0.238835
0.248746
0.25372
0.254692
0.251333
0.248289
0.252842
0.266334
0.287554
0.314267
0.341277
0.363387
0.381221
0.398611
0.421181
0.452221
0.493074
0.543382
0.602872
0.670741
0.749543
0.852285
0.960626
1.07156
1.14415
1.15514
1.09061
0.948639
0.783988
0.624867
0.479292
0.375491
0.30673
0.276896
0.280317
0.309382
0.343711
0.377749
0.401616
0.415964
0.422597
0.423424
0.42003
0.417932
0.404594
0.380833
0.338591
0.286221
0.229593
0.171187
0.11535
0.0731893
0.0503137
0.0379225
0.0359315
0.041281
0.0469063
0.0494944
0.0491565
0.0477492
0.0463106
0.048153
0.0505495
0.0485753
0.0391163
0.0310068
0.0284302
0.024308
0.0215249
0.0205776
0.0191435
0.0182862
0.0181067
0.0178191
0.0178901
0.018099
0.018261
0.0182924
0.0182282
0.0182635
0.0182102
0.0182371
0.0182296
0.0181681
0.0180803
0.0179951
0.0179575
0.0179786
0.017997
0.0179807
0.0179356
0.0179004
0.0179168
0.0179608
0.0179996
0.0180174
0.0180399
0.0180874
0.0181434
0.0181798
0.0181935
0.0181997
0.0182176
0.0182387
0.0182388
0.0182242
0.0182176
0.0182149
0.0181914
0.0181312
0.0180564
0.0179982
0.0179514
0.0178847
0.0177751
0.0176279
0.0174717
0.0173305
0.0171906
0.0170219
0.016821
0.0166049
0.01637
0.0160948
0.0157732
0.0154403
0.015139
0.0148727
0.0146095
0.0143141
0.0139794
0.013627
0.013286
0.0129761
0.0126915
0.0124063
0.0120962
0.0117554
0.0114051
0.0110869
0.0108228
0.01059
0.0103418
0.0100529
0.00974162
0.00944335
0.00918182
0.00895161
0.00872357
0.00847897
0.00822784
0.00799776
0.00779777
0.00759768
0.0073655
0.00711297
0.00688465
0.00670395
0.00655809
0.00641579
0.00624328
0.00603835
0.00583511
0.00566371
0.00553289
0.00542676
0.00532011
0.00519414
0.00505531
0.00492047
0.0048075
0.00472608
0.00465995
0.00458833
0.00450412
0.00441826
0.00434517
0.00429266
0.0042598
0.00423414
0.00420551
0.00417601
0.00415054
0.00412884
0.00410772
0.00408936
0.00407956
0.00408651
0.00410313
0.00410891
0.00409958
0.00409058
0.0040943
0.00410793
0.00412038
0.00412661
0.0041287
0.00412992
0.00413431
0.00414278
0.00414851
0.00414647
0.00413795
0.00412812
0.00412544
0.00413674
0.00415871
0.0041761
0.00417186
0.00415033
0.00413041
0.0041246
0.00413432
0.0041526
0.00416793
0.00417361
0.00417236
0.00416887
0.00416519
0.00416175
0.00416029
0.00416887
0.0041911
0.00421145
0.00421408
0.00420455
0.00419825
0.00420113
0.00421094
0.00422623
0.00424158
0.00424791
0.00424534
0.00424252
0.00424329
0.00424964
0.00426019
0.0042662
0.00426808
0.00426772
0.00426045
0.00425125
0.00424632
0.00424114
0.00423211
0.0042144
0.00419237
0.00417099
0.00414864
0.00412016
0.00408572
0.00405395
0.00402755
0.00400154
0.00396549
0.00391949
0.00387599
0.00383932
0.00380453
0.00377079
0.0037366
0.00370402
0.00367633
0.00364957
0.0036239
0.00360551
0.00359619
0.00359112
0.0035835
0.003575
0.00357333
0.00358209
0.00359987
0.00361581
0.00362072
0.00361616
0.00361026
0.00360656
0.00360344
0.00360048
0.0035929
0.00357864
0.0035605
0.00354242
0.0035299
0.00351518
0.00348975
0.00345958
0.00343104
0.00340803
0.00338801
0.00336479
0.00333556
0.00330577
0.00328276
0.00326144
0.00323668
0.00321202
0.00318771
0.00316309
0.00313828
0.00311489
0.00309275
0.00307017
0.00304915
0.003028
0.00300605
0.00298295
0.00295968
0.00293691
0.00291545
0.00289281
0.00286715
0.00283878
0.00281131
0.00278609
0.00276106
0.00273584
0.00270973
0.00268409
0.00265845
0.00263015
0.00259979
0.00256956
0.00254232
0.0025161
0.00248945
0.00246211
0.00243267
0.00240342
0.00237635
0.00235046
0.00232234
0.00229384
0.00226847
0.00224365
0.00221707
0.00219245
0.00216956
0.00214674
0.00212384
0.00209876
0.00207459
0.00205265
0.00203191
0.00200986
0.00199128
0.00196987
0.00194894
0.00192667
0.0019047
0.0018859
0.00186446
0.00185102
0.00183439
0.00182853
0.00182149
0.00179522
0.00178115
0.00178035
0.00179787
0.00187195
0.00192398
0.00184015
0.00196811
0.00197147
0.00183478
0.00175297
0.00173598
0.00177934
0.0018148
0.00186323
0.00180008
0.00171707
0.00167192
0.00162202
0.00161157
0.00162862
0.00169117
0.0017508
0.00183307
0.00179949
0.00194558
0.00201543
0.00190795
0.00181651
0.00176085
0.00178342
0.00175396
0.00178245
0.00174691
0.00171449
0.00170204
0.00168631
0.00168418
0.00167279
0.00161457
0.00165783
0.00170618
0.00185119
0.00237953
0.00281393
0.0032863
0.00400477
0.00424537
0.00417673
0.00383985
0.00365036
0.0036528
0.00396013
0.0043015
0.00442452
0.00415656
0.00365579
0.00312092
0.00266588
0.00233054
0.00210336
0.00195341
0.00185398
0.00178566
0.00173836
0.00170614
0.00168376
0.00166954
0.00166196
0.00165791
0.00165715
0.0016592
0.00166263
0.00166581
0.00167056
0.00167807
0.00168689
0.00169539
0.00170313
0.00171022
0.00171688
0.00172313
0.00172916
0.00173459
0.00174027
0.00174353
0.00174324
0.00174159
0.00174088
0.0017418
0.00174404
0.00174725
0.00175095
0.00175497
0.00175955
0.00176506
0.00177132
0.00177625
0.00178209
0.00179044
0.00179895
0.00180506
0.00180833
0.00180937
0.00180898
0.00180797
0.0018074
0.00180842
0.00181162
0.00181631
0.00182073
0.00182342
0.00182465
0.00182667
0.00183173
0.00183927
0.00184554
0.00184785
0.00184756
0.00184837
0.00185188
0.0018547
0.00185411
0.00185127
0.00185099
0.00184985
0.00184358
0.00183494
0.00183191
0.00184827
0.00187902
0.00197262
0.00208858
0.00213916
0.141993
0.16583
0.185389
0.215015
0.232632
0.233701
0.222817
0.218419
0.237036
0.281371
0.343072
0.416041
0.510227
0.645096
0.80025
0.88473
0.902418
0.872372
0.821751
0.764378
0.658632
0.544236
0.449691
0.369602
0.308102
0.269026
0.2499
0.245461
0.244765
0.238008
0.222371
0.201246
0.182228
0.17017
0.164475
0.160757
0.157561
0.155984
0.153796
0.149509
0.143109
0.137008
0.132885
0.13103
0.130303
0.128681
0.125213
0.119628
0.112851
0.105948
0.100418
0.0971319
0.0965509
0.0978229
0.0998429
0.101944
0.103268
0.105318
0.110846
0.118248
0.124763
0.129363
0.131203
0.129576
0.126821
0.126577
0.130708
0.138839
0.150485
0.164718
0.181436
0.199364
0.21805
0.23856
0.263349
0.29433
0.331657
0.372457
0.413043
0.451321
0.4866
0.52009
0.555061
0.597024
0.624532
0.653861
0.670987
0.646746
0.599327
0.529351
0.43995
0.351867
0.280809
0.232489
0.203812
0.191729
0.193133
0.201038
0.206823
0.209495
0.207323
0.203649
0.201332
0.200475
0.20055
0.203168
0.201933
0.19706
0.186755
0.163206
0.131482
0.104052
0.070663
0.0425731
0.0258665
0.0166916
0.0127972
0.0116839
0.0116921
0.0117181
0.0115104
0.0118867
0.0125278
0.0140487
0.0151399
0.0144951
0.0110848
0.00841718
0.00745231
0.00637762
0.00559057
0.0051673
0.00470702
0.00445857
0.00439569
0.00437829
0.00437862
0.00435983
0.00435452
0.00429815
0.00426652
0.00425726
0.00424018
0.00422596
0.00421138
0.00419787
0.0041924
0.00418924
0.00418344
0.00417973
0.00418
0.00418502
0.00419224
0.00420031
0.00420653
0.00421425
0.00422529
0.0042396
0.00425289
0.0042612
0.00426476
0.00426713
0.00427081
0.00427372
0.00427351
0.00427206
0.00427046
0.00426668
0.00425692
0.00424183
0.00422831
0.00421884
0.00420691
0.00418644
0.00415836
0.00412793
0.00409909
0.00406953
0.00403423
0.00399389
0.00395248
0.00390916
0.00385872
0.00379877
0.0037349
0.00367469
0.00362092
0.00357073
0.0035184
0.0034603
0.00339681
0.00333196
0.00327082
0.00321529
0.00316402
0.00311248
0.00305511
0.00299251
0.00293321
0.00288338
0.00284086
0.00279729
0.00274511
0.00268797
0.00263484
0.0025888
0.00254857
0.00250792
0.00246282
0.00241576
0.00237057
0.00233129
0.00229539
0.00225473
0.00221019
0.00216796
0.0021297
0.00209469
0.00206302
0.00203166
0.00199687
0.00196024
0.00192387
0.001891
0.00186358
0.00184047
0.00181685
0.00179055
0.00176262
0.00173554
0.00171236
0.00169286
0.00167524
0.00165728
0.0016394
0.00162276
0.00160842
0.00159527
0.00158219
0.00157064
0.00156074
0.00155246
0.00154506
0.00153715
0.00152913
0.00152203
0.00151651
0.00151254
0.00150968
0.00150675
0.00150336
0.00149991
0.00149665
0.00149368
0.00149136
0.00148997
0.00148891
0.00148738
0.0014854
0.00148357
0.00148167
0.00147959
0.00147774
0.00147616
0.00147536
0.00147596
0.00147668
0.0014757
0.00147358
0.00147186
0.00147131
0.00147138
0.00147139
0.00147142
0.00147179
0.00147248
0.00147318
0.00147339
0.00147294
0.00147259
0.00147332
0.00147516
0.00147708
0.00147826
0.00147868
0.00147898
0.00147969
0.0014807
0.00148201
0.00148371
0.0014852
0.00148614
0.00148683
0.0014874
0.00148791
0.00148853
0.00148912
0.00148977
0.00149024
0.0014897
0.00148837
0.00148717
0.00148618
0.00148475
0.0014821
0.00147864
0.00147529
0.00147197
0.00146768
0.00146243
0.00145715
0.00145212
0.00144703
0.00144097
0.00143375
0.00142634
0.00141935
0.00141262
0.00140589
0.00139891
0.00139175
0.0013847
0.00137783
0.0013713
0.00136552
0.0013602
0.00135499
0.0013497
0.00134442
0.00133987
0.00133628
0.0013332
0.00132997
0.00132636
0.0013224
0.00131849
0.00131478
0.00131097
0.00130717
0.0013035
0.00129951
0.00129517
0.00129085
0.00128666
0.00128231
0.00127757
0.00127284
0.00126847
0.00126448
0.00126068
0.00125682
0.00125266
0.00124851
0.00124487
0.00124154
0.00123836
0.0012353
0.00123213
0.001229
0.00122611
0.00122348
0.00122103
0.00121845
0.00121594
0.00121358
0.00121134
0.00120913
0.0012068
0.00120439
0.00120216
0.00120003
0.00119778
0.00119523
0.00119261
0.00119015
0.00118781
0.00118541
0.00118283
0.00118027
0.00117777
0.00117523
0.00117257
0.00116979
0.00116711
0.00116454
0.00116185
0.00115911
0.00115627
0.00115357
0.00115086
0.00114816
0.00114536
0.00114266
0.00114009
0.00113759
0.00113497
0.00113236
0.00112986
0.00112743
0.00112512
0.00112274
0.00112021
0.0011179
0.00111573
0.00111359
0.00111188
0.00110965
0.00110668
0.00110443
0.00110299
0.00110191
0.00110208
0.00110308
0.00110346
0.00109819
0.00110343
0.00112852
0.00114736
0.00117967
0.00119796
0.00130433
0.00134557
0.00126035
0.00119929
0.00115839
0.00115233
0.00111289
0.00110668
0.00109338
0.00109094
0.00109462
0.00108991
0.00109819
0.00115154
0.00118507
0.001214
0.00124498
0.00128467
0.00137919
0.00144447
0.0013522
0.00127805
0.0012132
0.0012002
0.00113835
0.00112071
0.00109592
0.0010912
0.00111221
0.00111123
0.00112504
0.00110067
0.00114456
0.00117012
0.00121797
0.00132898
0.00152368
0.00182606
0.00235153
0.00291763
0.00321653
0.00323031
0.00286259
0.00243166
0.00202915
0.00178489
0.00160613
0.00147791
0.00137859
0.00133189
0.00132159
0.00131832
0.00130641
0.00128404
0.00125657
0.00122912
0.00120485
0.00118432
0.00116715
0.00115263
0.00114028
0.00113004
0.00112125
0.00111401
0.00110824
0.00110313
0.00109888
0.00109554
0.00109281
0.00109036
0.00108848
0.00108724
0.00108621
0.00108508
0.00108405
0.00108321
0.00108268
0.00108239
0.00108231
0.0010821
0.00108196
0.00108169
0.00108122
0.00108078
0.00108056
0.00108051
0.00108052
0.00108056
0.00108059
0.00108057
0.00108058
0.0010807
0.00108092
0.00108095
0.00108105
0.00108131
0.00108155
0.00108163
0.00108159
0.0010815
0.00108138
0.00108126
0.00108117
0.00108115
0.00108121
0.00108132
0.00108144
0.00108154
0.00108159
0.00108165
0.00108179
0.00108199
0.00108213
0.00108216
0.0010821
0.00108211
0.00108223
0.00108227
0.00108217
0.00108207
0.00108215
0.00108236
0.00108205
0.00108182
0.0010824
0.00109206
0.00111101
0.00117364
0.00125775
0.00131213
0.0927229
0.108619
0.131441
0.154702
0.161726
0.159605
0.150835
0.147579
0.159815
0.187492
0.221442
0.255
0.298321
0.369465
0.465703
0.53711
0.553604
0.532914
0.495197
0.442357
0.367994
0.300431
0.248472
0.206206
0.174691
0.154561
0.144602
0.141739
0.140173
0.135878
0.127115
0.115883
0.106176
0.100444
0.0970881
0.0934753
0.0896233
0.0864816
0.0841796
0.0831804
0.0822895
0.0802859
0.0769415
0.0729584
0.0702548
0.0693858
0.069358
0.0689425
0.0667984
0.0624218
0.0572554
0.0533839
0.0516557
0.0516468
0.0526878
0.0539683
0.0548524
0.056104
0.0586146
0.0620838
0.0661609
0.0702761
0.0731028
0.0739447
0.0733989
0.0728879
0.0739302
0.0770247
0.0819003
0.0885957
0.0973985
0.108233
0.119968
0.132511
0.147243
0.165062
0.185746
0.208086
0.230035
0.249217
0.26472
0.276696
0.285955
0.293896
0.301396
0.308812
0.31595
0.323219
0.331148
0.336874
0.335695
0.319736
0.292405
0.250922
0.205756
0.169513
0.144172
0.127127
0.116068
0.110509
0.107859
0.104864
0.102331
0.100378
0.100362
0.10365
0.108318
0.113554
0.119062
0.123256
0.124286
0.119524
0.106908
0.0897286
0.0728185
0.0538887
0.034935
0.0212333
0.0129529
0.00910394
0.00731937
0.00671906
0.00658668
0.00667712
0.00726651
0.00806997
0.00925891
0.0100215
0.00964742
0.00745657
0.00568559
0.00495247
0.00426102
0.00373109
0.00340323
0.00322238
0.00294379
0.00270867
0.00260895
0.00254465
0.00250287
0.00247742
0.00244415
0.00242192
0.00241449
0.00240487
0.00239851
0.00239593
0.002395
0.00239571
0.00239661
0.00239681
0.00239955
0.00240515
0.00241179
0.00241777
0.00242202
0.00242625
0.00243219
0.00243839
0.00244326
0.00244648
0.00244992
0.00245303
0.00245443
0.00245505
0.00245675
0.00245917
0.00246046
0.00245936
0.00245701
0.00245591
0.00245563
0.00245433
0.00245165
0.00244763
0.0024422
0.00243503
0.00242639
0.00241835
0.00241233
0.00240689
0.00239868
0.00238621
0.00237095
0.00235491
0.00233998
0.00232763
0.0023173
0.00230598
0.00229177
0.00227521
0.00225668
0.0022386
0.00222417
0.00221205
0.00219818
0.00218028
0.00216009
0.00214135
0.00212605
0.00211217
0.00209437
0.00207319
0.00205381
0.00203724
0.00202157
0.00200379
0.00198289
0.00196019
0.0019386
0.00192125
0.00190611
0.0018881
0.00186626
0.00184313
0.00182024
0.00179883
0.00178101
0.00176478
0.00174642
0.00172506
0.0017022
0.0016811
0.00166216
0.00164566
0.00163005
0.00161367
0.00159669
0.0015786
0.00156042
0.00154398
0.00152983
0.00151735
0.00150506
0.00149207
0.00147997
0.00146852
0.00145678
0.00144672
0.00143883
0.00143165
0.00142395
0.00141564
0.00140741
0.00140014
0.00139423
0.00138981
0.0013865
0.00138296
0.00137846
0.00137352
0.00136934
0.00136593
0.00136291
0.00136056
0.00135845
0.00135581
0.00135289
0.00135089
0.0013497
0.0013484
0.00134677
0.00134473
0.00134244
0.00134098
0.00134057
0.0013403
0.00133972
0.00133901
0.00133811
0.00133692
0.00133619
0.00133609
0.00133603
0.00133595
0.00133617
0.00133661
0.00133669
0.00133634
0.00133615
0.00133647
0.00133723
0.00133816
0.00133893
0.00133917
0.00133923
0.00133974
0.0013405
0.00134128
0.00134209
0.00134263
0.00134293
0.00134332
0.00134375
0.00134403
0.00134422
0.00134431
0.00134421
0.00134391
0.00134344
0.00134288
0.00134209
0.00134081
0.00133929
0.00133765
0.00133587
0.00133383
0.00133124
0.00132833
0.00132536
0.00132223
0.00131879
0.00131488
0.00131069
0.00130646
0.00130215
0.00129762
0.00129278
0.00128782
0.00128288
0.0012779
0.00127286
0.00126769
0.00126246
0.00125726
0.00125225
0.00124733
0.00124236
0.00123743
0.00123265
0.00122809
0.00122359
0.00121919
0.00121498
0.00121098
0.00120716
0.00120334
0.0011996
0.00119606
0.00119249
0.00118896
0.00118564
0.00118233
0.00117914
0.00117607
0.00117306
0.00117017
0.00116744
0.00116489
0.00116259
0.00116026
0.00115791
0.00115571
0.00115368
0.00115181
0.00115009
0.00114846
0.00114688
0.00114537
0.00114397
0.00114273
0.00114152
0.00114031
0.00113913
0.00113799
0.00113691
0.00113592
0.00113492
0.00113382
0.00113281
0.00113191
0.001131
0.00112992
0.00112879
0.00112769
0.00112663
0.00112555
0.00112442
0.00112321
0.00112201
0.00112082
0.0011196
0.00111824
0.00111694
0.00111567
0.00111435
0.00111292
0.00111148
0.00111012
0.00110872
0.0011073
0.00110579
0.00110433
0.00110297
0.00110162
0.00110018
0.00109872
0.00109717
0.00109575
0.00109449
0.00109315
0.00109192
0.00109069
0.00108882
0.00108769
0.0010874
0.00108749
0.00109257
0.0010926
0.00109065
0.00108581
0.00109125
0.00111558
0.00113563
0.00116829
0.00118936
0.00129685
0.00134102
0.00125661
0.00119517
0.00115174
0.00114265
0.00110176
0.00109113
0.00107935
0.00108339
0.00108257
0.00107711
0.00108937
0.00114597
0.00118497
0.00124668
0.00126132
0.00138956
0.00145083
0.00139705
0.00131719
0.00123074
0.00119137
0.00118357
0.00112581
0.00110703
0.00108096
0.00107495
0.00109374
0.00109821
0.00110308
0.00108748
0.00114322
0.0012072
0.00133376
0.00150098
0.00183046
0.00211146
0.00261788
0.0030692
0.00328979
0.00333097
0.00298107
0.00253477
0.00209136
0.00181205
0.00157932
0.00140893
0.00128432
0.0012175
0.00120046
0.0012048
0.00120989
0.00121105
0.00120884
0.00120385
0.00119641
0.00118689
0.00117593
0.00116436
0.00115299
0.00114198
0.00113228
0.00112391
0.00111644
0.0011095
0.00110327
0.00109776
0.00109286
0.00108875
0.00108538
0.00108245
0.00107986
0.00107771
0.00107586
0.0010742
0.00107271
0.0010715
0.00107047
0.00106951
0.00106871
0.00106819
0.00106777
0.00106729
0.00106677
0.00106623
0.00106575
0.00106537
0.00106509
0.00106487
0.00106471
0.00106456
0.0010644
0.00106423
0.00106409
0.00106395
0.00106377
0.00106362
0.00106351
0.00106342
0.00106329
0.00106313
0.00106294
0.00106277
0.00106263
0.00106255
0.00106249
0.00106243
0.00106233
0.00106223
0.00106213
0.00106204
0.00106194
0.00106186
0.00106179
0.00106172
0.00106161
0.0010615
0.00106146
0.00106145
0.00106138
0.00106126
0.00106129
0.00106132
0.00106138
0.00106116
0.00106118
0.00106185
0.00107131
0.00109012
0.0011521
0.00123559
0.00129047
0.0636577
0.0863307
0.107608
0.112431
0.111913
0.106757
0.100492
0.099622
0.108858
0.125966
0.143242
0.15709
0.17443
0.20491
0.248133
0.283817
0.295999
0.28589
0.262348
0.228893
0.189536
0.157671
0.133872
0.114844
0.100856
0.0919828
0.0872034
0.0850207
0.0829905
0.0800568
0.0754071
0.0701082
0.0659864
0.0636579
0.0617544
0.0590362
0.0555372
0.0524054
0.0509686
0.0515329
0.0526545
0.0522667
0.0495659
0.0455454
0.0425455
0.0419384
0.0429595
0.0441392
0.0439236
0.0416181
0.0380144
0.0346699
0.0326243
0.0321142
0.0328363
0.0339059
0.0346608
0.0352321
0.0359063
0.0371863
0.0393368
0.0421411
0.0449046
0.0468849
0.0477612
0.0477226
0.0475623
0.0481885
0.0499659
0.0530232
0.0575099
0.0632509
0.0697918
0.076434
0.0828547
0.0903285
0.0997863
0.111122
0.123224
0.134742
0.14469
0.152826
0.159396
0.164649
0.168841
0.172015
0.174623
0.177108
0.180004
0.183711
0.188202
0.192788
0.195962
0.195055
0.186976
0.172028
0.150781
0.12761
0.107029
0.0907596
0.0780674
0.0681961
0.0620767
0.0592424
0.0576247
0.0578563
0.0597965
0.0629815
0.0681199
0.0735815
0.078722
0.0829377
0.0867884
0.0879637
0.0853951
0.0776475
0.0664508
0.0550026
0.0426247
0.0302587
0.0194699
0.012113
0.00855332
0.00691199
0.00633087
0.00619174
0.0063443
0.00704656
0.00799447
0.00927259
0.0101288
0.0100072
0.00797512
0.00627129
0.00524103
0.00460629
0.00403098
0.00357416
0.00318345
0.00282456
0.00255445
0.00243041
0.00236142
0.00231159
0.00228045
0.00224631
0.00222152
0.00221711
0.00221623
0.00221545
0.00221363
0.00221163
0.00221393
0.00222148
0.00222865
0.00223332
0.00223543
0.00223722
0.00224055
0.00224621
0.00225255
0.00225752
0.0022604
0.00226161
0.0022617
0.00226264
0.00226594
0.0022705
0.00227367
0.00227402
0.00227236
0.00227136
0.00227259
0.00227536
0.00227733
0.00227666
0.0022734
0.00226868
0.00226448
0.00226267