/*--------------------------------*- C++ -*----------------------------------*\
| =========                 |                                                 |
| \\      /  F ield         | OpenFOAM: The Open Source CFD Toolbox           |
|  \\    /   O peration     | Version:  v2006                                 |
|   \\  /    A nd           | Website:  www.openfoam.com                      |
|    \\/     M anipulation  |                                                 |
\*---------------------------------------------------------------------------*/
FoamFile
{
    version     2.0;
    format      ascii;
    class       surfaceScalarField;
    location    "6.5";
    object      phi;
}
// * * * * * * * * * * * * * * * * * * * * * * * * * * * * * * * * * * * * * //

dimensions      [0 3 -1 0 0 0 0];
oriented        oriented;


internalField   nonuniform List<scalar> 
65390
(
4.10504e-05
-7.42667e-07
4.53549e-05
-4.30426e-06
5.13782e-05
-6.02298e-06
5.59273e-05
-4.54887e-06
5.91507e-05
-3.22317e-06
6.16821e-05
-2.5312e-06
6.40127e-05
-2.33052e-06
6.59672e-05
-1.95446e-06
6.76143e-05
-1.64702e-06
6.90137e-05
-1.39941e-06
7.08758e-05
-1.86207e-06
7.29721e-05
-2.09624e-06
7.52941e-05
-2.32197e-06
7.76329e-05
-2.33888e-06
7.90316e-05
-1.39863e-06
7.8269e-05
7.62563e-07
7.5003e-05
3.266e-06
7.04432e-05
4.55972e-06
6.48485e-05
5.59469e-06
5.58073e-05
9.04113e-06
4.55292e-05
1.02781e-05
3.87448e-05
6.78438e-06
3.43571e-05
4.38759e-06
3.08374e-05
3.51962e-06
2.84157e-05
2.42161e-06
2.65038e-05
1.91185e-06
2.42866e-05
2.21716e-06
2.18279e-05
2.45864e-06
1.92044e-05
2.62338e-06
1.66908e-05
2.51348e-06
1.45628e-05
2.1279e-06
1.25504e-05
2.01232e-06
1.05849e-05
1.96541e-06
9.11719e-06
1.46761e-06
8.30869e-06
8.08397e-07
7.51476e-06
7.93818e-07
6.0673e-06
1.44734e-06
3.86567e-06
2.20151e-06
1.39529e-06
2.47026e-06
-4.05677e-07
1.80085e-06
-1.26838e-06
8.62577e-07
-1.93636e-06
6.67845e-07
-2.88481e-06
9.48324e-07
-4.28675e-06
1.40181e-06
-6.16991e-06
1.88303e-06
-8.10999e-06
1.93995e-06
-9.54667e-06
1.43655e-06
-1.03842e-05
8.37393e-07
-1.10557e-05
6.71392e-07
-1.17577e-05
7.01894e-07
-1.24513e-05
6.93489e-07
-1.31227e-05
6.71275e-07
-1.37822e-05
6.59391e-07
-1.4765e-05
9.82675e-07
-1.62421e-05
1.47694e-06
-1.80155e-05
1.7733e-06
-1.97554e-05
1.73983e-06
-2.11802e-05
1.42471e-06
-2.22858e-05
1.10544e-06
-2.3354e-05
1.0682e-06
-2.46463e-05
1.2922e-06
-2.59469e-05
1.30049e-06
-2.66824e-05
7.3551e-07
-2.66178e-05
-6.46419e-08
-2.60609e-05
-5.56915e-07
-2.53604e-05
-7.00623e-07
-2.47059e-05
-6.54531e-07
-2.40415e-05
-6.64364e-07
-2.31881e-05
-8.53456e-07
-2.19231e-05
-1.26499e-06
-2.00824e-05
-1.84074e-06
-1.73623e-05
-2.72016e-06
-1.38503e-05
-3.51205e-06
-9.94744e-06
-3.90289e-06
-6.15707e-06
-3.79042e-06
-3.09397e-06
-3.06314e-06
-1.65353e-06
-1.44048e-06
-2.66241e-06
1.00884e-06
-3.84072e-06
1.17827e-06
-4.86048e-06
1.01975e-06
-7.44451e-06
2.58401e-06
-9.2874e-06
1.84287e-06
-1.09172e-05
1.62979e-06
-1.18212e-05
9.04028e-07
-1.26005e-05
7.79294e-07
-1.30467e-05
4.46233e-07
-1.33121e-05
2.65365e-07
-1.35089e-05
1.96846e-07
-1.36027e-05
9.37935e-08
-1.36009e-05
-1.84395e-09
-1.33477e-05
-2.53181e-07
-1.28275e-05
-5.20213e-07
-1.19484e-05
-8.79092e-07
-1.06827e-05
-1.26564e-06
-8.73234e-06
-1.95038e-06
-6.29294e-06
-2.4394e-06
-3.3796e-06
-2.91335e-06
-4.29037e-07
-2.95057e-06
2.056e-06
-2.48504e-06
3.11955e-06
-1.06355e-06
3.02934e-06
9.0203e-08
2.49291e-06
5.36427e-07
1.74431e-06
7.48599e-07
1.14232e-06
6.01994e-07
3.19099e-07
8.23227e-07
-1.39932e-07
4.59037e-07
-3.38006e-07
1.98081e-07
-6.25713e-07
2.87716e-07
-1.02378e-06
3.98081e-07
-1.41052e-06
3.86746e-07
-1.77088e-06
3.60368e-07
-2.09826e-06
3.27396e-07
-2.26399e-06
1.65742e-07
-2.27218e-06
8.20356e-09
-2.02327e-06
-2.48904e-07
-1.62105e-06
-4.02207e-07
-1.03579e-06
-5.85245e-07
-8.02587e-07
-2.33198e-07
-1.05072e-06
2.48135e-07
-1.4297e-06
3.78984e-07
-1.91057e-06
4.80881e-07
-2.33946e-06
4.28883e-07
-2.91564e-06
5.76178e-07
-3.40269e-06
4.87043e-07
-3.78283e-06
3.80138e-07
-4.18095e-06
3.98107e-07
-4.56366e-06
3.827e-07
-4.95205e-06
3.88385e-07
-5.37001e-06
4.17942e-07
-5.76671e-06
3.96687e-07
-6.13969e-06
3.7297e-07
-6.50301e-06
3.63306e-07
-6.85023e-06
3.472e-07
-7.20578e-06
3.55535e-07
-7.55886e-06
3.53068e-07
-7.91181e-06
3.52937e-07
-8.25812e-06
3.46299e-07
-8.59217e-06
3.34043e-07
-8.9249e-06
3.3272e-07
-9.25325e-06
3.28345e-07
-9.57892e-06
3.25666e-07
-9.8951e-06
3.16182e-07
-1.02014e-05
3.06288e-07
-1.04926e-05
2.91193e-07
-1.07711e-05
2.78574e-07
-1.10425e-05
2.71383e-07
-1.13097e-05
2.67136e-07
-1.15722e-05
2.62593e-07
-1.18264e-05
2.54208e-07
-1.20629e-05
2.36478e-07
-1.22841e-05
2.21157e-07
-1.24988e-05
2.14681e-07
-1.27077e-05
2.08956e-07
-1.29102e-05
2.02479e-07
-1.31014e-05
1.91143e-07
-1.32817e-05
1.80326e-07
-1.3452e-05
1.70228e-07
-1.36122e-05
1.60171e-07
-1.37631e-05
1.50925e-07
-1.39041e-05
1.40981e-07
-1.40351e-05
1.31058e-07
-1.41595e-05
1.24341e-07
-1.42758e-05
1.16352e-07
-1.43783e-05
1.02431e-07
-1.44681e-05
8.9823e-08
-1.45505e-05
8.24186e-08
-1.46278e-05
7.73125e-08
-1.46949e-05
6.7168e-08
-1.47462e-05
5.1249e-08
-1.47854e-05
3.92521e-08
-1.48181e-05
3.266e-08
-1.4845e-05
2.69657e-08
-1.48636e-05
1.85453e-08
-1.4869e-05
5.42636e-09
-1.48605e-05
-8.54849e-09
-1.48418e-05
-1.86655e-08
-1.48164e-05
-2.54555e-08
-1.47845e-05
-3.19307e-08
-1.47435e-05
-4.1032e-08
-1.46941e-05
-4.93363e-08
-1.46381e-05
-5.60582e-08
-1.45738e-05
-6.43249e-08
-1.44994e-05
-7.43765e-08
-1.44122e-05
-8.72148e-08
-1.4316e-05
-9.6253e-08
-1.42143e-05
-1.01705e-07
-1.41086e-05
-1.05762e-07
-1.3999e-05
-1.09584e-07
-1.38821e-05
-1.16884e-07
-1.37554e-05
-1.2669e-07
-1.36205e-05
-1.34935e-07
-1.34779e-05
-1.42584e-07
-1.33312e-05
-1.46705e-07
-1.31811e-05
-1.5004e-07
-1.30265e-05
-1.54675e-07
-1.28655e-05
-1.60927e-07
-1.26971e-05
-1.68395e-07
-1.25193e-05
-1.7785e-07
-1.23335e-05
-1.85767e-07
-1.21437e-05
-1.89741e-07
-1.19544e-05
-1.89307e-07
-1.17634e-05
-1.9101e-07
-1.15665e-05
-1.96813e-07
-1.136e-05
-2.06525e-07
-1.11429e-05
-2.17011e-07
-1.09202e-05
-2.22686e-07
-1.06955e-05
-2.2468e-07
-1.04688e-05
-2.26628e-07
-1.02374e-05
-2.31337e-07
-9.99606e-06
-2.41297e-07
-9.74542e-06
-2.50593e-07
-9.49258e-06
-2.52789e-07
-9.24465e-06
-2.47888e-07
-8.9962e-06
-2.48396e-07
-8.73306e-06
-2.63098e-07
-8.45806e-06
-2.74951e-07
-8.1789e-06
-2.79119e-07
-7.89951e-06
-2.79351e-07
-7.62887e-06
-2.70612e-07
-7.36584e-06
-2.63006e-07
-7.10063e-06
-2.65195e-07
-6.82818e-06
-2.72435e-07
-6.54975e-06
-2.78419e-07
-6.27322e-06
-2.76523e-07
-6.0047e-06
-2.68518e-07
-5.75241e-06
-2.52282e-07
-5.51071e-06
-2.41706e-07
-5.27281e-06
-2.37893e-07
-5.03772e-06
-2.35085e-07
-4.80338e-06
-2.34336e-07
-4.57426e-06
-2.29113e-07
-4.3574e-06
-2.16844e-07
-4.15883e-06
-1.98556e-07
-3.97042e-06
-1.88384e-07
-3.78523e-06
-1.85172e-07
-3.60541e-06
-1.79794e-07
-3.43068e-06
-1.74698e-07
-3.26142e-06
-1.69234e-07
-3.10062e-06
-1.60779e-07
-2.94816e-06
-1.52438e-07
-2.80236e-06
-1.4578e-07
-2.66453e-06
-1.37813e-07
-2.53535e-06
-1.29171e-07
-2.41196e-06
-1.23377e-07
-2.28986e-06
-1.22095e-07
-2.16687e-06
-1.22981e-07
-2.04467e-06
-1.22189e-07
-1.92668e-06
-1.17971e-07
-1.81915e-06
-1.07518e-07
-1.71717e-06
-1.01958e-07
-1.61061e-06
-1.06537e-07
-1.50014e-06
-1.10453e-07
-1.39018e-06
-1.09941e-07
-1.2815e-06
-1.08664e-07
-1.17594e-06
-1.05541e-07
-1.07251e-06
-1.0342e-07
-9.66491e-07
-1.06007e-07
-8.57473e-07
-1.09013e-07
-7.46228e-07
-1.11244e-07
-6.32425e-07
-1.13805e-07
-5.17859e-07
-1.14573e-07
-4.02547e-07
-1.15321e-07
-2.84359e-07
-1.18199e-07
-1.62047e-07
-1.22325e-07
-3.45604e-08
-1.275e-07
9.61804e-08
-1.30753e-07
2.26904e-07
-1.30733e-07
3.56809e-07
-1.2991e-07
4.89609e-07
-1.32801e-07
6.29022e-07
-1.39407e-07
7.74378e-07
-1.45346e-07
9.23143e-07
-1.48748e-07
1.07497e-06
-1.51806e-07
1.22892e-06
-1.53934e-07
1.38324e-06
-1.54295e-07
1.53992e-06
-1.5666e-07
1.7006e-06
-1.60664e-07
1.86518e-06
-1.64559e-07
2.03333e-06
-1.68123e-07
2.20449e-06
-1.71129e-07
2.37856e-06
-1.74024e-07
2.55523e-06
-1.76631e-07
2.73257e-06
-1.7729e-07
2.90978e-06
-1.77159e-07
3.08983e-06
-1.80016e-07
3.27341e-06
-1.83536e-07
3.45887e-06
-1.85421e-07
3.64552e-06
-1.86623e-07
3.83329e-06
-1.87744e-07
4.02162e-06
-1.88308e-07
4.20973e-06
-1.88095e-07
4.39819e-06
-1.88449e-07
4.58747e-06
-1.89276e-07
4.77732e-06
-1.89846e-07
4.96727e-06
-1.89955e-07
5.15675e-06
-1.89476e-07
5.34481e-06
-1.88069e-07
5.53144e-06
-1.86627e-07
5.71689e-06
-1.85465e-07
5.90105e-06
-1.84181e-07
6.08405e-06
-1.83027e-07
6.26514e-06
-1.81111e-07
6.44311e-06
-1.78001e-07
6.6183e-06
-1.75217e-07
6.79096e-06
-1.72683e-07
6.96074e-06
-1.69808e-07
7.12715e-06
-1.6643e-07
7.28963e-06
-1.6251e-07
7.44809e-06
-1.585e-07
7.60268e-06
-1.54646e-07
7.75329e-06
-1.50678e-07
7.89909e-06
-1.45878e-07
8.03927e-06
-1.40255e-07
8.17403e-06
-1.34842e-07
8.30385e-06
-1.29898e-07
8.42851e-06
-1.24718e-07
8.54728e-06
-1.18826e-07
8.65984e-06
-1.12602e-07
8.76615e-06
-1.06354e-07
8.8662e-06
-1.00078e-07
8.95987e-06
-9.37014e-08
9.0468e-06
-8.69593e-08
9.12662e-06
-7.98438e-08
9.1995e-06
-7.2904e-08
9.26557e-06
-6.60935e-08
9.32453e-06
-5.89877e-08
9.3759e-06
-5.13965e-08
9.41957e-06
-4.36907e-08
9.45595e-06
-3.64059e-08
9.48516e-06
-2.92417e-08
9.50709e-06
-2.19462e-08
9.52113e-06
-1.40657e-08
9.52684e-06
-5.73547e-09
9.52478e-06
2.04308e-09
9.51553e-06
9.22519e-09
9.49926e-06
1.62482e-08
9.47575e-06
2.34784e-08
9.44486e-06
3.08431e-08
9.4065e-06
3.83124e-08
9.36075e-06
4.56878e-08
9.30811e-06
5.25809e-08
9.24884e-06
5.92108e-08
9.18307e-06
6.57119e-08
9.11063e-06
7.23986e-08
9.03133e-06
7.92657e-08
8.94569e-06
8.56293e-08
8.85427e-06
9.14125e-08
8.75735e-06
9.69287e-08
8.65481e-06
1.02542e-07
8.54637e-06
1.08443e-07
8.43208e-06
1.1429e-07
8.31275e-06
1.19326e-07
8.18898e-06
1.23762e-07
8.0603e-06
1.28665e-07
7.92655e-06
1.33725e-07
7.7884e-06
1.38128e-07
7.6461e-06
1.42274e-07
7.49974e-06
1.46337e-07
7.34948e-06
1.5025e-07
7.19553e-06
1.53948e-07
7.03805e-06
1.57486e-07
6.8772e-06
1.60857e-07
6.71317e-06
1.64049e-07
6.54593e-06
1.67266e-07
6.37554e-06
1.70411e-07
6.20225e-06
1.73307e-07
6.02656e-06
1.75694e-07
5.8487e-06
1.7785e-07
5.66876e-06
1.79925e-07
5.48658e-06
1.82155e-07
5.30229e-06
1.84261e-07
5.11638e-06
1.85882e-07
4.92936e-06
1.86984e-07
4.74141e-06
1.87936e-07
4.55228e-06
1.89113e-07
4.36221e-06
1.90069e-07
4.17146e-06
1.90756e-07
3.9802e-06
1.91282e-07
3.78834e-06
1.91897e-07
3.59609e-06
1.92288e-07
3.40418e-06
1.91945e-07
3.21319e-06
1.91036e-07
3.02307e-06
1.9015e-07
2.8337e-06
1.89397e-07
2.64522e-06
1.88501e-07
2.45783e-06
1.87406e-07
2.27159e-06
1.86231e-07
2.08724e-06
1.84334e-07
1.90513e-06
1.82089e-07
1.72512e-06
1.79986e-07
1.54696e-06
1.78125e-07
1.37124e-06
1.75692e-07
1.19865e-06
1.72568e-07
1.02925e-06
1.69377e-07
8.62938e-07
1.66308e-07
7.00126e-07
1.62813e-07
5.40657e-07
1.59478e-07
3.84494e-07
1.56176e-07
2.32001e-07
1.52505e-07
8.37109e-08
1.48301e-07
-5.99651e-08
1.43684e-07
-1.98896e-07
1.38936e-07
-3.3364e-07
1.34748e-07
-4.64208e-07
1.30571e-07
-5.90722e-07
1.26519e-07
-7.13067e-07
1.2235e-07
-8.30636e-07
1.17576e-07
-9.43304e-07
1.12678e-07
-1.05133e-06
1.08039e-07
-1.15501e-06
1.03695e-07
-1.25474e-06
9.97471e-08
-1.35009e-06
9.53689e-08
-1.4415e-06
9.14271e-08
-1.52738e-06
8.59004e-08
-1.60924e-06
8.18729e-08
-1.68651e-06
7.72863e-08
-1.75973e-06
7.32303e-08
-1.83028e-06
7.0555e-08
-1.89717e-06
6.68886e-08
-1.95833e-06
6.11555e-08
-2.0153e-06
5.69656e-08
-2.06555e-06
5.02364e-08
-2.11275e-06
4.71912e-08
-2.15949e-06
4.67231e-08
-2.20249e-06
4.29842e-08
-2.25034e-06
4.7842e-08
-2.28643e-06
3.6071e-08
-2.30527e-06
1.88384e-08
-2.32271e-06
1.7425e-08
-2.29755e-06
-2.51602e-08
-2.2289e-06
-6.86514e-08
-2.17344e-06
-5.54614e-08
-2.14502e-06
-2.84281e-08
-2.12647e-06
-1.85469e-08
-2.12049e-06
-5.98716e-09
-2.11312e-06
-7.36653e-09
-2.10023e-06
-1.28951e-08
-2.08185e-06
-1.83782e-08
-2.06257e-06
-1.92808e-08
-2.04127e-06
-2.1292e-08
-2.01203e-06
-2.92475e-08
-2.01999e-06
7.96624e-09
-2.03588e-06
1.58892e-08
-2.01474e-06
-2.11295e-08
-2.0032e-06
-1.15336e-08
-1.92597e-06
-7.72268e-08
-1.81409e-06
-1.11873e-07
-1.54521e-06
-2.68873e-07
-1.17306e-06
-3.72143e-07
-8.83075e-07
-2.89974e-07
-6.36883e-07
-2.46187e-07
-4.69014e-07
-1.67864e-07
-3.2005e-07
-1.48959e-07
-2.00387e-07
-1.19659e-07
-8.97696e-08
-1.10614e-07
2.50525e-09
-9.22705e-08
8.40638e-08
-8.15537e-08
1.68133e-07
-8.40642e-08
2.38358e-07
-7.02201e-08
3.09608e-07
-7.12453e-08
4.02056e-07
-9.24435e-08
4.44593e-07
-4.25341e-08
4.92459e-07
-4.78627e-08
5.87281e-07
-9.48187e-08
5.45922e-07
4.13625e-08
6.29673e-07
-8.37487e-08
7.028e-07
-7.31255e-08
9.64646e-07
-2.61842e-07
1.03547e-06
-7.08271e-08
1.17195e-06
-1.36469e-07
1.59754e-06
-4.2559e-07
2.04754e-06
-4.49994e-07
2.40988e-06
-3.62337e-07
2.69335e-06
-2.83466e-07
2.92616e-06
-2.32797e-07
3.13314e-06
-2.06972e-07
3.31981e-06
-1.86662e-07
3.48954e-06
-1.69725e-07
3.64569e-06
-1.56139e-07
3.79664e-06
-1.50952e-07
3.94369e-06
-1.47036e-07
4.08335e-06
-1.39657e-07
4.21967e-06
-1.36312e-07
4.35312e-06
-1.33447e-07
4.4816e-06
-1.28471e-07
4.61067e-06
-1.2907e-07
4.73819e-06
-1.27515e-07
4.86232e-06
-1.24129e-07
4.98276e-06
-1.20444e-07
5.10581e-06
-1.23043e-07
5.22925e-06
-1.23442e-07
5.34889e-06
-1.19641e-07
5.46484e-06
-1.15952e-07
5.57933e-06
-1.1448e-07
5.6943e-06
-1.14972e-07
5.80934e-06
-1.15047e-07
5.92312e-06
-1.13779e-07
6.03641e-06
-1.1329e-07
6.14817e-06
-1.11754e-07
6.25983e-06
-1.11664e-07
6.36738e-06
-1.07551e-07
6.47313e-06
-1.05745e-07
6.58119e-06
-1.08058e-07
6.69176e-06
-1.10569e-07
6.80351e-06
-1.11753e-07
6.91493e-06
-1.11412e-07
7.0248e-06
-1.09866e-07
7.13323e-06
-1.08428e-07
7.24028e-06
-1.07047e-07
7.34647e-06
-1.06191e-07
7.45225e-06
-1.05768e-07
7.55764e-06
-1.05391e-07
7.6606e-06
-1.0295e-07
7.76495e-06
-1.04345e-07
7.86974e-06
-1.04792e-07
7.97121e-06
-1.01462e-07
8.0692e-06
-9.79884e-08
8.1654e-06
-9.61899e-08
8.26075e-06
-9.53475e-08
8.35606e-06
-9.53023e-08
8.45167e-06
-9.5606e-08
8.54735e-06
-9.56713e-08
8.64284e-06
-9.54839e-08
8.73785e-06
-9.49993e-08
8.83204e-06
-9.41901e-08
8.92526e-06
-9.32056e-08
9.01756e-06
-9.22957e-08
9.10941e-06
-9.18416e-08
9.20116e-06
-9.17439e-08
9.29276e-06
-9.15916e-08
9.38377e-06
-9.10103e-08
9.47352e-06
-8.97403e-08
9.562e-06
-8.84707e-08
9.65e-06
-8.7994e-08
9.7383e-06
-8.82936e-08
9.82682e-06
-8.85142e-08
9.91424e-06
-8.74186e-08
1.00006e-05
-8.63119e-08
1.00859e-05
-8.53194e-08
1.01727e-05
-8.68222e-08
1.02573e-05
-8.46064e-08
1.03415e-05
-8.41618e-08
1.04272e-05
-8.56965e-08
1.05188e-05
-9.15429e-08
1.06117e-05
-9.2963e-08
1.0703e-05
-9.12906e-08
1.07929e-05
-8.98658e-08
1.08823e-05
-8.93658e-08
1.09726e-05
-9.03469e-08
-9.74404e-08
4.32253e-05
-3.65061e-06
5.43979e-05
-1.54776e-05
6.59378e-05
-1.75634e-05
6.99909e-05
-8.60247e-06
6.8557e-05
-1.78959e-06
6.63173e-05
-2.91827e-07
6.4502e-05
-5.15587e-07
6.31238e-05
-5.7649e-07
6.19076e-05
-4.30999e-07
6.10608e-05
-5.52723e-07
6.04134e-05
-1.21484e-06
6.02753e-05
-1.95824e-06
6.04498e-05
-2.4966e-06
6.03397e-05
-2.22885e-06
5.91023e-05
-1.61277e-07
5.66215e-05
3.24322e-06
5.30584e-05
6.82899e-06
4.85301e-05
9.08801e-06
4.33983e-05
1.07264e-05
3.9875e-05
1.25642e-05
3.79289e-05
1.22242e-05
3.54438e-05
9.26929e-06
3.22718e-05
7.55952e-06
2.95737e-05
6.21761e-06
2.73445e-05
4.65071e-06
2.52048e-05
4.05141e-06
2.31263e-05
4.29549e-06
2.09036e-05
4.68121e-06
1.85577e-05
4.96905e-06
1.61929e-05
4.8782e-06
1.40013e-05
4.31923e-06
1.21738e-05
3.83973e-06
1.06661e-05
3.47287e-06
9.35507e-06
2.77847e-06
8.14706e-06
2.01622e-06
6.87136e-06
2.06933e-06
5.42533e-06
2.89317e-06
3.80676e-06
3.81988e-06
2.16991e-06
4.1069e-06
6.28253e-07
3.34229e-06
-6.93026e-07
2.18364e-06
-1.74796e-06
1.72256e-06
-2.82947e-06
2.02962e-06
-4.25076e-06
2.82288e-06
-5.87985e-06
3.51191e-06
-7.51088e-06
3.57078e-06
-9.10419e-06
3.02966e-06
-1.0413e-05
2.14604e-06
-1.13892e-05
1.64741e-06
-1.22141e-05
1.52659e-06
-1.30144e-05
1.49352e-06
-1.39206e-05
1.57734e-06
-1.49676e-05
1.70625e-06
-1.61963e-05
2.21116e-06
-1.75025e-05
2.78296e-06
-1.86453e-05
2.91592e-06
-1.9565e-05
2.65947e-06
-2.04563e-05
2.31589e-06
-2.1601e-05
2.24996e-06
-2.30369e-05
2.50402e-06
-2.45311e-05
2.78631e-06
-2.58767e-05
2.64601e-06
-2.68599e-05
1.7186e-06
-2.73438e-05
4.19144e-07
-2.75698e-05
-3.30922e-07
-2.77604e-05
-5.10088e-07
-2.80101e-05
-4.04928e-07
-2.84137e-05
-2.60783e-07
-2.89449e-05
-3.22287e-07
-2.94219e-05
-7.88119e-07
-2.94298e-05
-1.83289e-06
-2.88107e-05
-3.33929e-06
-2.7639e-05
-4.68389e-06
-2.59635e-05
-5.57841e-06
-2.37601e-05
-5.99388e-06
-2.09056e-05
-5.91778e-06
-1.70184e-05
-5.32771e-06
-1.21612e-05
-3.8484e-06
-8.8045e-06
-2.17844e-06
-7.57232e-06
-2.12455e-07
-8.0321e-06
3.04377e-06
-8.9688e-06
2.77958e-06
-9.67637e-06
2.33736e-06
-1.14557e-05
2.6834e-06
-1.23998e-05
1.72341e-06
-1.3222e-05
1.26849e-06
-1.36059e-05
6.4922e-07
-1.37563e-05
3.47268e-07
-1.37399e-05
7.74502e-08
-1.39101e-05
1.68353e-07
-1.38774e-05
-2.85808e-07
-1.39374e-05
-4.60275e-07
-1.39434e-05
-8.73076e-07
-1.39602e-05
-1.24879e-06
-1.39255e-05
-1.98514e-06
-1.37563e-05
-2.60852e-06
-1.32437e-05
-3.426e-06
-1.20666e-05
-4.12769e-06
-1.03317e-05
-4.21993e-06
-7.60672e-06
-3.78851e-06
-4.41965e-06
-3.09686e-06
-1.62212e-06
-2.26111e-06
-5.32711e-08
-8.20245e-07
5.99049e-07
-5.03199e-08
9.00764e-07
5.21521e-07
6.30773e-07
7.29038e-07
1.84883e-07
6.43984e-07
-4.96265e-07
9.68878e-07
-1.24687e-06
1.1487e-06
-1.70359e-06
8.43479e-07
-1.87673e-06
5.33525e-07
-2.11123e-06
5.61908e-07
-2.38221e-06
4.36735e-07
-2.70696e-06
3.32968e-07
-3.1265e-06
1.70651e-07
-3.46088e-06
-6.7817e-08
-3.74514e-06
-3.00986e-07
-3.68359e-06
-2.94746e-07
-3.27146e-06
-1.6399e-07
-2.67496e-06
-2.17525e-07
-2.42216e-06
2.28071e-07
-2.60882e-06
6.15525e-07
-2.84093e-06
8.08272e-07
-3.193e-06
8.39096e-07
-3.59671e-06
7.83824e-07
-4.15351e-06
9.54891e-07
-4.63831e-06
8.67478e-07
-5.0093e-06
7.5935e-07
-5.37648e-06
7.85096e-07
-5.72816e-06
7.48342e-07
-6.09515e-06
7.39934e-07
-6.48553e-06
7.53664e-07
-6.85467e-06
7.16314e-07
-7.20757e-06
7.08408e-07
-7.56193e-06
7.0741e-07
-7.908e-06
6.9899e-07
-8.2495e-06
6.87791e-07
-8.5871e-06
6.71627e-07
-8.92526e-06
6.70878e-07
-9.25493e-06
6.58013e-07
-9.57734e-06
6.48084e-07
-9.89205e-06
6.309e-07
-1.01959e-05
6.10103e-07
-1.04888e-05
5.84113e-07
-1.0772e-05
5.618e-07
-1.10501e-05
5.49467e-07
-1.13218e-05
5.38899e-07
-1.15829e-05
5.2368e-07
-1.18292e-05
5.00505e-07
-1.20631e-05
4.70343e-07
-1.22888e-05
4.46832e-07
-1.25093e-05
4.35246e-07
-1.27225e-05
4.22077e-07
-1.29242e-05
4.04142e-07
-1.31107e-05
3.77637e-07
-1.3287e-05
3.56642e-07
-1.34572e-05
3.40427e-07
-1.36211e-05
3.24039e-07
-1.37755e-05
3.05325e-07
-1.39187e-05
2.842e-07
-1.40515e-05
2.63812e-07
-1.41754e-05
2.48297e-07
-1.42891e-05
2.29978e-07
-1.43912e-05
2.04565e-07
-1.44827e-05
1.81347e-07
-1.45668e-05
1.66577e-07
-1.4643e-05
1.53477e-07
-1.47085e-05
1.32701e-07
-1.47612e-05
1.03916e-07
-1.4802e-05
8.00998e-08
-1.48353e-05
6.59951e-08
-1.48608e-05
5.24074e-08
-1.4876e-05
3.37686e-08
-1.48811e-05
1.05276e-08
-1.48751e-05
-1.45964e-08
-1.48582e-05
-3.56039e-08
-1.48321e-05
-5.15456e-08
-1.4797e-05
-6.70607e-08
-1.4754e-05
-8.41142e-08
-1.47047e-05
-9.86388e-08
-1.46476e-05
-1.13126e-07
-1.45822e-05
-1.2976e-07
-1.45071e-05
-1.49508e-07
-1.44206e-05
-1.73763e-07
-1.43251e-05
-1.9179e-07
-1.42223e-05
-2.04501e-07
-1.41135e-05
-2.14593e-07
-1.40008e-05
-2.22257e-07
-1.38833e-05
-2.34392e-07
-1.37588e-05
-2.51156e-07
-1.36265e-05
-2.67237e-07
-1.34846e-05
-2.8448e-07
-1.33347e-05
-2.96623e-07
-1.31792e-05
-3.05469e-07
-1.302e-05
-3.13837e-07
-1.28576e-05
-3.23304e-07
-1.269e-05
-3.35974e-07
-1.25139e-05
-3.54006e-07
-1.23293e-05
-3.70287e-07
-1.21402e-05
-3.78848e-07
-1.19485e-05
-3.8094e-07
-1.17528e-05
-3.86709e-07
-1.15503e-05
-3.99263e-07
-1.13397e-05
-4.17034e-07
-1.11241e-05
-4.32556e-07
-1.09049e-05
-4.41858e-07
-1.06816e-05
-4.47924e-07
-1.04525e-05
-4.55667e-07
-1.02155e-05
-4.68206e-07
-9.97187e-06
-4.8489e-07
-9.72422e-06
-4.98171e-07
-9.47616e-06
-5.00782e-07
-9.22693e-06
-4.97056e-07
-8.97112e-06
-5.04141e-07
-8.70698e-06
-5.27174e-07
-8.43682e-06
-5.45063e-07
-8.16424e-06
-5.51645e-07
-7.89051e-06
-5.53041e-07
-7.61856e-06
-5.42535e-07
-7.35e-06
-5.31537e-07
-7.08242e-06
-5.32757e-07
-6.81355e-06
-5.41286e-07
-6.54231e-06
-5.49656e-07
-6.27432e-06
-5.44498e-07
-6.01128e-06
-5.31551e-07
-5.75477e-06
-5.08784e-07
-5.50671e-06
-4.89759e-07
-5.26737e-06
-4.77216e-07
-5.034e-06
-4.68433e-07
-4.80513e-06
-4.63186e-07
-4.58262e-06
-4.51589e-07
-4.36844e-06
-4.30995e-07
-4.16554e-06
-4.01418e-07
-3.97352e-06
-3.80367e-07
-3.78834e-06
-3.70308e-07
-3.60682e-06
-3.61279e-07
-3.43055e-06
-3.50944e-07
-3.26148e-06
-3.38268e-07
-3.10123e-06
-3.21012e-07
-2.951e-06
-3.02645e-07
-2.81062e-06
-2.86151e-07
-2.67623e-06
-2.7219e-07
-2.54513e-06
-2.60262e-07
-2.41578e-06
-2.52713e-07
-2.28949e-06
-2.48376e-07
-2.1679e-06
-2.44549e-07
-2.05091e-06
-2.39153e-07
-1.93785e-06
-2.31008e-07
-1.82879e-06
-2.16544e-07
-1.72208e-06
-2.08633e-07
-1.61502e-06
-2.13563e-07
-1.50662e-06
-2.18826e-07
-1.39962e-06
-2.16913e-07
-1.29501e-06
-2.13245e-07
-1.19087e-06
-2.09668e-07
-1.08477e-06
-2.09511e-07
-9.75889e-07
-2.14886e-07
-8.65402e-07
-2.19506e-07
-7.54315e-07
-2.22345e-07
-6.43718e-07
-2.2442e-07
-5.33041e-07
-2.25272e-07
-4.18264e-07
-2.30124e-07
-2.97942e-07
-2.38546e-07
-1.7427e-07
-2.46023e-07
-4.79753e-08
-2.53817e-07
8.06039e-08
-2.5935e-07
2.10149e-07
-2.60291e-07
3.41728e-07
-2.61496e-07
4.76806e-07
-2.67881e-07
6.16739e-07
-2.79337e-07
7.61225e-07
-2.89822e-07
9.08773e-07
-2.96281e-07
1.0588e-06
-3.0181e-07
1.21166e-06
-3.0677e-07
1.36811e-06
-3.10707e-07
1.52724e-06
-3.15754e-07
1.68888e-06
-3.22259e-07
1.8531e-06
-3.28722e-07
2.02046e-06
-3.35433e-07
2.19128e-06
-3.41894e-07
2.36526e-06
-3.47953e-07
2.54174e-06
-3.53049e-07
2.71933e-06
-3.54827e-07
2.89814e-06
-3.55919e-07
3.07943e-06
-3.61255e-07
3.26335e-06
-3.67412e-07
3.44887e-06
-3.70894e-07
3.63531e-06
-3.7302e-07
3.82272e-06
-3.75122e-07
4.01143e-06
-3.76985e-07
4.20088e-06
-3.77523e-07
4.39078e-06
-3.78337e-07
4.58098e-06
-3.79471e-07
4.771e-06
-3.7986e-07
4.96067e-06
-3.79634e-07
5.1502e-06
-3.79026e-07
5.33949e-06
-3.77376e-07
5.52788e-06
-3.75045e-07
5.71436e-06
-3.7198e-07
5.89856e-06
-3.68409e-07
6.08135e-06
-3.65864e-07
6.26288e-06
-3.62677e-07
6.44238e-06
-3.57552e-07
6.6189e-06
-3.51801e-07
6.79179e-06
-3.45635e-07
6.96182e-06
-3.39912e-07
7.12922e-06
-3.33908e-07
7.29292e-06
-3.26292e-07
7.45215e-06
-3.17831e-07
7.60707e-06
-3.09653e-07
7.75791e-06
-3.01617e-07
7.90434e-06
-2.92406e-07
8.04566e-06
-2.81675e-07
8.18126e-06
-2.70538e-07
8.31143e-06
-2.60162e-07
8.43635e-06
-2.49732e-07
8.55569e-06
-2.38247e-07
8.669e-06
-2.2599e-07
8.77587e-06
-2.13285e-07
8.87609e-06
-2.00356e-07
8.96976e-06
-1.87417e-07
9.05687e-06
-1.74101e-07
9.13723e-06
-1.60239e-07
9.21063e-06
-1.46332e-07
9.27678e-06
-1.32276e-07
9.33547e-06
-1.17714e-07
9.38671e-06
-1.02689e-07
9.4306e-06
-8.76255e-08
9.46716e-06
-7.30201e-08
9.49623e-06
-5.83667e-08
9.51761e-06
-4.3368e-08
9.53122e-06
-2.77265e-08
9.53705e-06
-1.16036e-08
9.53517e-06
3.87448e-09
9.52583e-06
1.85287e-08
9.50906e-06
3.2972e-08
9.48485e-06
4.76312e-08
9.4534e-06
6.22314e-08
9.41483e-06
7.68196e-08
9.36905e-06
9.13888e-08
9.31604e-06
1.05529e-07
9.25612e-06
1.19063e-07
9.18958e-06
1.32199e-07
9.11629e-06
1.45657e-07
9.03655e-06
1.58979e-07
8.95082e-06
1.71349e-07
8.8591e-06
1.83136e-07
8.76143e-06
1.94597e-07
8.65799e-06
2.05986e-07
8.54898e-06
2.17453e-07
8.43461e-06
2.28653e-07
8.31503e-06
2.38876e-07
8.19048e-06
2.48288e-07
8.06117e-06
2.57928e-07
7.92727e-06
2.67585e-07
7.78879e-06
2.76575e-07
7.64575e-06
2.85276e-07
7.49866e-06
2.93408e-07
7.34788e-06
3.01013e-07
7.19349e-06
3.08329e-07
7.03553e-06
3.15455e-07
6.8741e-06
3.22298e-07
6.70951e-06
3.28647e-07
6.5419e-06
3.34878e-07
6.37145e-06
3.40864e-07
6.19829e-06
3.46459e-07
6.02251e-06
3.51455e-07
5.84433e-06
3.56003e-07
5.66392e-06
3.60304e-07
5.48147e-06
3.64568e-07
5.29718e-06
3.68514e-07
5.11124e-06
3.71797e-07
4.92404e-06
3.74172e-07
4.73578e-06
3.76192e-07
4.54649e-06
3.78403e-07
4.35628e-06
3.80311e-07
4.16517e-06
3.81895e-07
3.97366e-06
3.8284e-07
3.78212e-06
3.83491e-07
3.59064e-06
3.83829e-07
3.39918e-06
3.83464e-07
3.20806e-06
3.82205e-07
3.01763e-06
3.80613e-07
2.82798e-06
3.79072e-07
2.63928e-06
3.77219e-07
2.45181e-06
3.74875e-07
2.26582e-06
3.72197e-07
2.08173e-06
3.68402e-07
1.8994e-06
3.64386e-07
1.71911e-06
3.60235e-07
1.54135e-06
3.55848e-07
1.36641e-06
3.50604e-07
1.19401e-06
3.44951e-07
1.0243e-06
3.39072e-07
8.57644e-07
3.32968e-07
6.94697e-07
3.25766e-07
5.35338e-07
3.18848e-07
3.79914e-07
3.11613e-07
2.28114e-07
3.04318e-07
7.99032e-08
2.96522e-07
-6.4084e-08
2.8768e-07
-2.03645e-07
2.78504e-07
-3.39066e-07
2.70176e-07
-4.69795e-07
2.61308e-07
-5.9613e-07
2.52864e-07
-7.18197e-07
2.44431e-07
-8.36116e-07
2.35515e-07
-9.49929e-07
2.26515e-07
-1.05921e-06
2.17347e-07
-1.16357e-06
2.08088e-07
-1.26315e-06
1.99366e-07
-1.3579e-06
1.90151e-07
-1.44808e-06
1.81638e-07
-1.53439e-06
1.72242e-07
-1.61798e-06
1.65484e-07
-1.69808e-06
1.57394e-07
-1.77196e-06
1.47124e-07
-1.84032e-06
1.38918e-07
-1.90063e-06
1.27192e-07
-1.95985e-06
1.20358e-07
-2.01943e-06
1.16533e-07
-2.07888e-06
1.09663e-07
-2.14118e-06
1.0947e-07
-2.18708e-06
9.26111e-08
-2.21164e-06
6.75223e-08
-2.22552e-06
6.1704e-08
-2.20773e-06
1.82776e-08
-2.15903e-06
-2.98765e-08
-2.11476e-06
-2.68489e-08
-2.10206e-06
-3.78674e-08
-2.12046e-06
-5.02525e-08
-2.13874e-06
-3.71841e-08
-2.14638e-06
-2.07916e-08
-2.13935e-06
-2.55757e-08
-2.12766e-06
-1.76773e-08
-2.10402e-06
-3.10141e-08
-2.07767e-06
-3.92428e-08
-2.05555e-06
-4.04979e-08
-2.06871e-06
-6.12183e-09
-2.09571e-06
5.71567e-09
-2.07737e-06
-4.75836e-08
-2.03296e-06
-3.64387e-08
-1.9016e-06
-1.15464e-07
-1.7529e-06
-1.69815e-07
-1.46829e-06
-2.96131e-07
-1.11899e-06
-4.26518e-07
-8.36071e-07
-3.94776e-07
-6.64637e-07
-4.40294e-07
-6.00226e-07
-4.36542e-07
-5.21696e-07
-3.68493e-07
-4.2799e-07
-3.39885e-07
-3.36898e-07
-2.58948e-07
-2.40861e-07
-2.4499e-07
-1.49873e-07
-2.1064e-07
-6.39461e-08
-1.96533e-07
1.89595e-08
-1.75168e-07
1.01964e-07
-1.6455e-07
2.09683e-07
-1.91775e-07
2.66453e-07
-1.26983e-07
3.27571e-07
-1.32357e-07
4.18802e-07
-1.83669e-07
4.07245e-07
-3.09724e-08
5.05869e-07
-1.46482e-07
5.71552e-07
-1.60498e-07
9.61915e-07
-3.48996e-07
1.08177e-06
-2.03597e-07
1.23953e-06
-2.30884e-07
1.56333e-06
-5.85635e-07
1.95281e-06
-4.60308e-07
2.2919e-06
-4.75552e-07
2.46695e-06
-6.00632e-07
2.62074e-06
-6.03771e-07
2.78879e-06
-5.30377e-07
2.95487e-06
-4.49533e-07
3.11384e-06
-3.91758e-07
3.26788e-06
-3.61002e-07
3.41939e-06
-3.38153e-07
3.56646e-06
-3.16791e-07
3.71082e-06
-3.00484e-07
3.85335e-06
-2.93468e-07
3.99317e-06
-2.86845e-07
4.12902e-06
-2.75499e-07
4.26225e-06
-2.69538e-07
4.39358e-06
-2.64773e-07
4.52297e-06
-2.57853e-07
4.6511e-06
-2.57196e-07
4.77789e-06
-2.54303e-07
4.90343e-06
-2.49671e-07
5.02765e-06
-2.44669e-07
5.15106e-06
-2.46444e-07
5.27334e-06
-2.45728e-07
5.39412e-06
-2.40419e-07
5.51332e-06
-2.35157e-07
5.63135e-06
-2.32517e-07
5.74805e-06
-2.31667e-07
5.86372e-06
-2.30722e-07
5.97863e-06
-2.28688e-07
6.09328e-06
-2.2794e-07
6.20612e-06
-2.24601e-07
6.31691e-06
-2.22456e-07
6.42715e-06
-2.17785e-07
6.53712e-06
-2.15714e-07
6.64667e-06
-2.17606e-07
6.75592e-06
-2.19813e-07
6.86458e-06
-2.20416e-07
6.97251e-06
-2.19332e-07
7.08045e-06
-2.17811e-07
7.18756e-06
-2.15533e-07
7.29402e-06
-2.13501e-07
7.4e-06
-2.12165e-07
7.50523e-06
-2.10988e-07
7.6092e-06
-2.09354e-07
7.7122e-06
-2.05953e-07
7.81429e-06
-2.06419e-07
7.9152e-06
-2.05697e-07
8.01512e-06
-2.01374e-07
8.11425e-06
-1.9711e-07
8.21262e-06
-1.94553e-07
8.31036e-06
-1.93071e-07
8.40729e-06
-1.92224e-07
8.50338e-06
-1.91688e-07
8.5989e-06
-1.91178e-07
8.69398e-06
-1.90556e-07
8.78861e-06
-1.89619e-07
8.88263e-06
-1.88199e-07
8.97587e-06
-1.86434e-07
9.0684e-06
-1.84815e-07
9.16032e-06
-1.83744e-07
9.25181e-06
-1.83223e-07
9.34288e-06
-1.8265e-07
9.43294e-06
-1.81061e-07
9.52198e-06
-1.78771e-07
9.61059e-06
-1.77068e-07
9.69925e-06
-1.76647e-07
9.78773e-06
-1.76759e-07
9.87545e-06
-1.76232e-07
9.96216e-06
-1.74116e-07
1.00489e-05
-1.73079e-07
1.01362e-05
-1.72524e-07
1.02231e-05
-1.73789e-07
1.03093e-05
-1.70733e-07
1.03947e-05
-1.69587e-07
1.04811e-05
-1.72118e-07
1.05678e-05
-1.78152e-07
1.06539e-05
-1.79146e-07
1.07393e-05
-1.76667e-07
1.08242e-05
-1.7472e-07
1.09085e-05
-1.7362e-07
1.09921e-05
-1.73956e-07
-1.75423e-07
4.77624e-05
-1.10749e-05
6.51965e-05
-3.29114e-05
8.01181e-05
-3.24849e-05
8.57461e-05
-1.42303e-05
8.02807e-05
3.67598e-06
7.22508e-05
7.7381e-06
6.548e-05
6.25525e-06
6.04299e-05
4.47372e-06
5.63445e-05
3.65437e-06
5.24749e-05
3.3169e-06
4.84656e-05
2.79442e-06
4.47194e-05
1.78794e-06
4.15054e-05
7.17427e-07
3.85356e-05
7.40863e-07
3.55503e-05
2.82399e-06
3.2962e-05
5.8315e-06
3.12147e-05
8.57628e-06
3.00175e-05
1.02852e-05
2.91654e-05
1.15784e-05
2.95328e-05
1.21968e-05
3.02784e-05
1.14785e-05
2.96214e-05
9.92618e-06
2.80161e-05
9.16474e-06
2.63036e-05
7.93008e-06
2.44182e-05
6.53601e-06
2.26615e-05
5.80799e-06
2.1125e-05
5.83197e-06
1.93476e-05
6.45847e-06
1.73498e-05
6.96669e-06
1.52851e-05
6.9428e-06
1.32607e-05
6.34354e-06
1.17318e-05
5.3685e-06
1.06123e-05
4.59229e-06
9.42633e-06
3.96434e-06
7.88503e-06
3.5574e-06
6.26477e-06
3.68947e-06
4.97462e-06
4.1832e-06
3.90961e-06
4.88477e-06
2.83062e-06
5.18578e-06
1.52557e-06
4.64722e-06
-1.04034e-08
3.7195e-06
-1.48287e-06
3.19492e-06
-2.85748e-06
3.40412e-06
-4.23219e-06
4.19748e-06
-5.63874e-06
4.91835e-06
-7.12644e-06
5.05837e-06
-8.76102e-06
4.66414e-06
-1.03806e-05
3.76552e-06
-1.17659e-05
3.03259e-06
-1.29495e-05
2.71009e-06
-1.40916e-05
2.63555e-06
-1.52578e-05
2.74349e-06
-1.64962e-05
2.94452e-06
-1.75877e-05
3.30262e-06
-1.84137e-05
3.60884e-06
-1.8994e-05
3.49615e-06
-1.94742e-05
3.13964e-06
-2.01361e-05
2.97767e-06
-2.12136e-05
3.32749e-06
-2.2642e-05
3.93238e-06
-2.40786e-05
4.22291e-06
-2.53392e-05
3.90656e-06
-2.65098e-05
2.8892e-06
-2.7536e-05
1.44537e-06
-2.82446e-05
3.77595e-07
-2.87606e-05
5.97902e-09
-2.9227e-05
6.13989e-08
-2.97108e-05
2.23047e-07
-3.03269e-05
2.93821e-07
-3.10641e-05
-5.0867e-08
-3.1815e-05
-1.08205e-06
-3.26085e-05
-2.54578e-06
-3.32876e-05