/*--------------------------------*- C++ -*----------------------------------*\
| =========                 |                                                 |
| \\      /  F ield         | OpenFOAM: The Open Source CFD Toolbox           |
|  \\    /   O peration     | Version:  v2006                                 |
|   \\  /    A nd           | Website:  www.openfoam.com                      |
|    \\/     M anipulation  |                                                 |
\*---------------------------------------------------------------------------*/
FoamFile
{
    version     2.0;
    format      ascii;
    class       volVectorField;
    location    "6.5";
    object      U;
}
// * * * * * * * * * * * * * * * * * * * * * * * * * * * * * * * * * * * * * //

dimensions      [0 1 -1 0 0 0 0];


internalField   nonuniform List<vector> 
33000
(
(0.0869258 0 0.00140956)
(0.108931 0 -0.00473327)
(0.122653 0 -0.00896314)
(0.133413 0 -0.0106852)
(0.144818 0 -0.00947454)
(0.151004 0 -0.00892099)
(0.15783 0 -0.00908996)
(0.1629 0 -0.00796757)
(0.167556 0 -0.00690737)
(0.171187 0 -0.0046838)
(0.17433 0 -0.00553651)
(0.179596 0 -0.00519334)
(0.184038 0 -0.00701215)
(0.190557 0 -0.00882017)
(0.196738 0 -0.00713954)
(0.198067 0 -0.00344329)
(0.194336 0 0.000575802)
(0.183325 0 0.000666354)
(0.169142 0 0.00172636)
(0.156275 0 0.0213598)
(0.123298 0 0.0337788)
(0.102545 0 0.0204953)
(0.0906626 0 0.010251)
(0.0809054 0 0.00807329)
(0.0731237 0 0.00557805)
(0.068855 0 0.00364263)
(0.0637533 0 0.00459412)
(0.0576891 0 0.00561002)
(0.0513789 0 0.00578377)
(0.0446487 0 0.00526347)
(0.0388583 0 0.00421267)
(0.0339923 0 0.00428832)
(0.0288195 0 0.00436722)
(0.0240627 0 0.00327881)
(0.0214579 0 0.00150452)
(0.0201273 0 0.0011558)
(0.0175218 0 0.00283068)
(0.012739 0 0.00496526)
(0.00651445 0 0.00582754)
(0.00054128 0 0.00421326)
(-0.00243735 0 0.00151519)
(-0.00387394 0 0.00109122)
(-0.00576209 0 0.00201667)
(-0.00861543 0 0.00296159)
(-0.0129785 0 0.00425905)
(-0.0179982 0 0.00456176)
(-0.022458 0 0.00294602)
(-0.0251238 0 0.00138573)
(-0.0267495 0 0.00130341)
(-0.0286164 0 0.0015176)
(-0.0301886 0 0.00147588)
(-0.0321728 0 0.00129621)
(-0.0335033 0 0.00109849)
(-0.0354083 0 0.00170868)
(-0.038485 0 0.00303789)
(-0.0427606 0 0.00407967)
(-0.047303 0 0.00430341)
(-0.0513594 0 0.00341953)
(-0.0544063 0 0.00215524)
(-0.0570191 0 0.0018267)
(-0.0598541 0 0.00252927)
(-0.063502 0 0.00278058)
(-0.0662908 0 0.00129116)
(-0.0670035 0 -0.000461048)
(-0.0661518 0 -0.00193365)
(-0.0643686 0 -0.00250597)
(-0.0625265 0 -0.00227132)
(-0.0610458 0 -0.00261071)
(-0.0592706 0 -0.00365419)
(-0.0565295 0 -0.00517088)
(-0.0528122 0 -0.00675714)
(-0.046952 0 -0.00909688)
(-0.0390465 0 -0.0111481)
(-0.029994 0 -0.0117599)
(-0.0205056 0 -0.0100679)
(-0.011296 0 -0.00589677)
(-0.0059738 0 0.0026478)
(-0.000274695 0 0.0121517)
(-0.0130395 0 0.00735991)
(-0.00662208 0 0.00114454)
(-0.0173557 0 0.00323669)
(-0.0200033 0 0.00196384)
(-0.0264018 0 0.00501415)
(-0.0281579 0 0.00121468)
(-0.030944 0 0.00184892)
(-0.0321182 0 0.000256288)
(-0.0330592 0 0.000847801)
(-0.0335474 0 0.000212237)
(-0.0339561 0 0.000513855)
(-0.0340901 0 -1.40163e-05)
(-0.0338876 0 -0.000482572)
(-0.0328678 0 -0.00122466)
(-0.0312641 0 -0.00270613)
(-0.0284778 0 -0.00410443)
(-0.0249297 0 -0.0068078)
(-0.0187297 0 -0.00827635)
(-0.0127268 0 -0.00991047)
(-0.00418513 0 -0.00799997)
(0.00203634 0 -0.00492662)
(0.00822765 0 0.00231619)
(0.00738442 0 0.00589634)
(0.0077559 0 0.00629372)
(0.00470335 0 0.00224748)
(0.00403135 0 -0.00136585)
(0.00167878 0 -0.000759009)
(-9.06191e-05 0 -0.000303911)
(-0.000601399 0 0.00140936)
(-0.00109422 0 0.00158679)
(-0.00203415 0 0.00215674)
(-0.00308158 0 0.00121474)
(-0.00397708 0 0.000543742)
(-0.00486958 0 0.000306458)
(-0.00563354 0 0.000141757)
(-0.00567195 0 -9.01345e-05)
(-0.0057043 0 -0.0011406)
(-0.0043986 0 -0.00159073)
(-0.00371512 0 -0.00253433)
(-0.00146771 0 -0.000315361)
(-0.00253764 0 0.00179172)
(-0.00272418 0 0.002819)
(-0.00441736 0 0.00210775)
(-0.00514023 0 0.000549598)
(-0.00655738 0 0.000473052)
(-0.00802402 0 0.000449388)
(-0.00898381 0 0.000947321)
(-0.00993642 0 0.00107387)
(-0.0109639 0 0.00105838)
(-0.0118576 0 0.000738638)
(-0.012903 0 0.000774481)
(-0.0139486 0 0.000686571)
(-0.0148828 0 0.000801299)
(-0.0158183 0 0.00074282)
(-0.0166935 0 0.000767403)
(-0.0175617 0 0.000666141)
(-0.018465 0 0.000683266)
(-0.0193314 0 0.000605698)
(-0.0202273 0 0.000636538)
(-0.0210627 0 0.00060904)
(-0.0218997 0 0.000626564)
(-0.0227241 0 0.000629664)
(-0.0235436 0 0.000621405)
(-0.0243498 0 0.000610196)
(-0.0251269 0 0.000584453)
(-0.0258786 0 0.000564056)
(-0.0265847 0 0.000534183)
(-0.0272707 0 0.000526508)
(-0.0279424 0 0.000512922)
(-0.0286057 0 0.000513503)
(-0.029256 0 0.000500841)
(-0.0298747 0 0.000465747)
(-0.0304393 0 0.000428123)
(-0.0309815 0 0.000417268)
(-0.0315117 0 0.000405318)
(-0.0320276 0 0.000398884)
(-0.0325223 0 0.000380458)
(-0.0329846 0 0.000360388)
(-0.0334233 0 0.000335848)
(-0.033836 0 0.00031434)
(-0.0342244 0 0.000295791)
(-0.0345905 0 0.00027858)
(-0.0349292 0 0.0002593)
(-0.0352462 0 0.000247476)
(-0.035551 0 0.00023199)
(-0.0358269 0 0.000202967)
(-0.0360637 0 0.000177059)
(-0.0362762 0 0.000162358)
(-0.0364761 0 0.000153117)
(-0.0366623 0 0.000133602)
(-0.0368109 0 0.00010072)
(-0.0369195 0 7.67233e-05)
(-0.0370073 0 6.29653e-05)
(-0.0370826 0 5.35326e-05)
(-0.0371422 0 3.91795e-05)
(-0.0371747 0 1.12611e-05)
(-0.0371694 0 -1.86801e-05)
(-0.0371324 0 -3.82192e-05)
(-0.0370762 0 -5.04941e-05)
(-0.0370055 0 -6.06416e-05)
(-0.0369161 0 -7.84779e-05)
(-0.0368007 0 -9.65335e-05)
(-0.0366698 0 -0.000109779)
(-0.03652 0 -0.000126945)
(-0.0363487 0 -0.000147164)
(-0.0361471 0 -0.000172574)
(-0.0359139 0 -0.000189526)
(-0.0356657 0 -0.000198217)
(-0.0354056 0 -0.000204894)
(-0.0351371 0 -0.000213108)
(-0.0348574 0 -0.000230431)
(-0.0345523 0 -0.000251729)
(-0.0342247 0 -0.000267799)
(-0.0338769 0 -0.000280796)
(-0.0335129 0 -0.000285231)
(-0.0331426 0 -0.000289981)
(-0.0327632 0 -0.000300413)
(-0.0323687 0 -0.000316238)
(-0.0319588 0 -0.000332872)
(-0.0315262 0 -0.000350942)
(-0.0310699 0 -0.00036584)
(-0.0305971 0 -0.000374065)
(-0.030122 0 -0.000371417)
(-0.0296498 0 -0.000371621)
(-0.029167 0 -0.000381581)
(-0.0286652 0 -0.000402156)
(-0.0281341 0 -0.000427725)
(-0.0275805 0 -0.000440794)
(-0.0270206 0 -0.0004437)
(-0.0264568 0 -0.000444495)
(-0.0258874 0 -0.000450237)
(-0.0252993 0 -0.000471874)
(-0.0246809 0 -0.000494523)
(-0.0240464 0 -0.000500852)
(-0.023417 0 -0.00048671)
(-0.0228069 0 -0.000481281)
(-0.0221733 0 -0.000515601)
(-0.0214921 0 -0.000544479)
(-0.0207985 0 -0.000554304)
(-0.0200962 0 -0.000552949)
(-0.0194021 0 -0.000527991)
(-0.0187428 0 -0.000510167)
(-0.0180863 0 -0.000519063)
(-0.017417 0 -0.000539453)
(-0.0167236 0 -0.000552828)
(-0.0160258 0 -0.000549668)
(-0.0153402 0 -0.00053118)
(-0.0146842 0 -0.000490869)
(-0.0140781 0 -0.00046828)
(-0.0134756 0 -0.000466687)
(-0.0128887 0 -0.00046412)
(-0.0122998 0 -0.000464022)
(-0.0117175 0 -0.000455025)
(-0.0111538 0 -0.000427702)
(-0.0106339 0 -0.000386062)
(-0.0101604 0 -0.000366561)
(-0.00969174 0 -0.000364266)
(-0.00923454 0 -0.00035255)
(-0.00879262 0 -0.000342075)
(-0.00836085 0 -0.000331354)
(-0.00794648 0 -0.000313553)
(-0.00755675 0 -0.000298808)
(-0.0071842 0 -0.000290913)
(-0.00682767 0 -0.000274908)
(-0.00649525 0 -0.000253774)
(-0.0061815 0 -0.000237469)
(-0.00587844 0 -0.000236082)
(-0.00557067 0 -0.000242686)
(-0.00526381 0 -0.000243175)
(-0.00495946 0 -0.000234362)
(-0.00467422 0 -0.000208855)
(-0.00442168 0 -0.000195978)
(-0.00416404 0 -0.000209883)
(-0.00388885 0 -0.000218877)
(-0.00361196 0 -0.000217403)
(-0.00333889 0 -0.000215513)
(-0.00306863 0 -0.000207955)
(-0.00281119 0 -0.000200868)
(-0.00255124 0 -0.000205508)
(-0.00228114 0 -0.000213161)
(-0.00200624 0 -0.000218824)
(-0.00172478 0 -0.000225826)
(-0.00143737 0 -0.00022842)
(-0.00115195 0 -0.000226572)
(-0.000860706 0 -0.000229801)
(-0.000561085 0 -0.000238999)
(-0.000248961 0 -0.000251356)
(7.6249e-05 0 -0.000258969)
(0.000404787 0 -0.000258748)
(0.000729737 0 -0.000254063)
(0.00105445 0 -0.00025913)
(0.00139381 0 -0.000273945)
(0.00175156 0 -0.000286752)
(0.00212048 0 -0.000293717)
(0.00249539 0 -0.000299972)
(0.00287969 0 -0.000303131)
(0.00326495 0 -0.000301401)
(0.00365143 0 -0.000306851)
(0.00404836 0 -0.000316345)
(0.00445487 0 -0.000324456)
(0.00487127 0 -0.00033114)
(0.0052956 0 -0.000336749)
(0.0057271 0 -0.000342627)
(0.00616589 0 -0.00034783)
(0.00661055 0 -0.000348664)
(0.00705233 0 -0.000347568)
(0.00749687 0 -0.000353524)
(0.0079526 0 -0.000361138)
(0.00841467 0 -0.000365087)
(0.00887991 0 -0.000367405)
(0.00934789 0 -0.000369512)
(0.00981884 0 -0.000370162)
(0.0102894 0 -0.000369203)
(0.0107595 0 -0.000369854)
(0.0112317 0 -0.00037196)
(0.0117059 0 -0.000373549)
(0.0121808 0 -0.000373906)
(0.0126558 0 -0.000372766)
(0.0131281 0 -0.000369038)
(0.0135961 0 -0.000365803)
(0.0140613 0 -0.000364474)
(0.0145233 0 -0.000362701)
(0.0149821 0 -0.000360197)
(0.0154383 0 -0.000355866)
(0.0158874 0 -0.000349022)
(0.0163283 0 -0.000343772)
(0.0167633 0 -0.000339629)
(0.0171916 0 -0.0003339)
(0.0176122 0 -0.000326663)
(0.0180235 0 -0.000318851)
(0.0184246 0 -0.000311343)
(0.0188158 0 -0.000304202)
(0.0191976 0 -0.000296339)
(0.0195688 0 -0.000286466)
(0.0199265 0 -0.000275085)
(0.0202697 0 -0.000264786)
(0.0206003 0 -0.000255438)
(0.0209188 0 -0.000245161)
(0.0212235 0 -0.000233203)
(0.0215127 0 -0.000220968)
(0.0217863 0 -0.000208899)
(0.0220443 0 -0.000196769)
(0.0222865 0 -0.000184313)
(0.0225126 0 -0.000170813)
(0.0227211 0 -0.000156461)
(0.0229117 0 -0.000142917)
(0.0230855 0 -0.000129958)
(0.023242 0 -0.0001162)
(0.0233803 0 -0.000101036)
(0.0234989 0 -8.55486e-05)
(0.0235987 0 -7.12245e-05)
(0.0236807 0 -5.74307e-05)
(0.0237448 0 -4.3469e-05)
(0.0237903 0 -2.77729e-05)
(0.0238149 0 -1.09022e-05)
(0.023819 0 4.29633e-06)
(0.0238046 0 1.8101e-05)
(0.0237727 0 3.17288e-05)
(0.0237232 0 4.58758e-05)
(0.0236552 0 6.05617e-05)
(0.0235688 0 7.5546e-05)
(0.0234634 0 9.00842e-05)
(0.0233401 0 0.000103191)
(0.0232002 0 0.000116005)
(0.0230437 0 0.000128723)
(0.0228713 0 0.000141926)
(0.0226815 0 0.000155879)
(0.0224749 0 0.000168515)
(0.0222533 0 0.000179454)
(0.0220178 0 0.000189969)
(0.0217687 0 0.000201072)
(0.0215051 0 0.00021301)
(0.0212265 0 0.000224784)
(0.0209337 0 0.000234111)
(0.0206299 0 0.000242358)
(0.0203149 0 0.000252334)
(0.0199865 0 0.000262519)
(0.0196462 0 0.000270635)
(0.0192957 0 0.000278517)
(0.0189347 0 0.000286574)
(0.0185639 0 0.000294617)
(0.0181834 0 0.000301772)
(0.0177942 0 0.000308842)
(0.017396 0 0.000315292)
(0.01699 0 0.000321861)
(0.0165758 0 0.000328111)
(0.0161538 0 0.000334554)
(0.0157239 0 0.000340056)
(0.0152874 0 0.000344683)
(0.0148454 0 0.00034854)
(0.0143981 0 0.000352327)
(0.0139457 0 0.000356657)
(0.0134872 0 0.000361109)
(0.0130243 0 0.000364194)
(0.0125577 0 0.000366011)
(0.0120892 0 0.00036778)
(0.0116178 0 0.000370011)
(0.0111436 0 0.000372021)
(0.0106674 0 0.000372831)
(0.01019 0 0.00037425)
(0.0097111 0 0.000375444)
(0.00923066 0 0.000377299)
(0.00874984 0 0.000375503)
(0.00827118 0 0.000374121)
(0.00779481 0 0.000371387)
(0.00732063 0 0.000371145)
(0.00684793 0 0.000368541)
(0.00637827 0 0.000367855)
(0.0059109 0 0.00036454)
(0.00544714 0 0.000362448)
(0.00498912 0 0.000356685)
(0.00453661 0 0.00035416)
(0.00408902 0 0.000350167)
(0.00364585 0 0.000347231)
(0.00321039 0 0.000339876)
(0.00278292 0 0.000334361)
(0.00236336 0 0.000328234)
(0.00195141 0 0.000322188)
(0.00154921 0 0.000316171)
(0.00115416 0 0.000310384)
(0.000768276 0 0.000304268)
(0.000391844 0 0.000294642)
(2.65888e-05 0 0.000287634)
(-0.000326362 0 0.000276442)
(-0.000668342 0 0.00027128)
(-0.000999759 0 0.00026023)
(-0.00132154 0 0.000257243)
(-0.00163192 0 0.000244871)
(-0.00193369 0 0.000241894)
(-0.00221928 0 0.000225869)
(-0.00249752 0 0.000222374)
(-0.00275892 0 0.000204697)
(-0.00301639 0 0.000201035)
(-0.0032571 0 0.000185245)
(-0.00349357 0 0.000180996)
(-0.00371372 0 0.000170421)
(-0.00392339 0 0.000164994)
(-0.00412258 0 0.000155308)
(-0.00431017 0 0.000137524)
(-0.00448826 0 0.000126128)
(-0.00466326 0 0.000113561)
(-0.00482242 0 0.000121269)
(-0.00496947 0 0.000127492)
(-0.00510641 0 0.000131546)
(-0.00522209 0 8.58793e-05)
(-0.00534069 0 4.78243e-05)
(-0.0054568 0 -2.69507e-06)
(-0.0055562 0 5.60035e-05)
(-0.00569612 0 0.000121569)
(-0.00573259 0 0.000192119)
(-0.00580147 0 0.000166513)
(-0.00580109 0 -4.15816e-05)
(-0.00568754 0 -0.000298624)
(-0.00546626 0 -0.000201971)
(-0.00539445 0 -0.000101833)
(-0.00533453 0 -9.99303e-05)
(-0.00529496 0 -5.38286e-05)
(-0.00530921 0 -9.62234e-05)
(-0.00525501 0 -2.38113e-05)
(-0.00524689 0 -3.22321e-05)
(-0.00516161 0 4.6346e-05)
(-0.00515171 0 4.68235e-05)
(-0.00505405 0 -4.48877e-05)
(-0.00500639 0 -0.000105713)
(-0.00509339 0 -0.000170627)
(-0.00508584 0 -2.99608e-05)
(-0.00498856 0 0.000331385)
(-0.00502564 0 0.000507307)
(-0.0046067 0 0.00014267)
(-0.00446119 0 -0.000487197)
(-0.00326248 0 -0.00119154)
(-0.00260956 0 -0.000738093)
(-0.00180001 0 -0.000658332)
(-0.00138926 0 -0.000393714)
(-0.000951248 0 -0.000319285)
(-0.000653141 0 -0.000270267)
(-0.000344793 0 -0.000165018)
(-0.000107577 0 -0.00026824)
(0.000123512 0 -0.000103456)
(0.000294269 0 -0.000287973)
(0.000548545 0 -3.18856e-05)
(0.000640765 0 -0.000243512)
(0.000911087 0 -2.76746e-06)
(0.00109373 0 -0.000271971)
(0.00113585 0 6.94794e-06)
(0.00132461 0 -0.00044915)
(0.00160898 0 0.000228732)
(0.00112171 0 -0.000162832)
(0.00203353 0 0.000182768)
(0.00145219 0 0.000119849)
(0.00341726 0 8.42418e-05)
(0.00175957 0 -0.000332599)
(0.00365641 0 -0.00126362)
(0.00467317 0 -0.00125684)
(0.00564859 0 -0.000963545)
(0.0064123 0 -0.000724533)
(0.00705356 0 -0.000570044)
(0.00759871 0 -0.000487148)
(0.00808261 0 -0.000419736)
(0.00852483 0 -0.000368203)
(0.00892925 0 -0.000327659)
(0.00930823 0 -0.000309839)
(0.00967945 0 -0.000297742)
(0.0100394 0 -0.000279177)
(0.0103821 0 -0.000270958)
(0.0107186 0 -0.00026415)
(0.0110475 0 -0.000252349)
(0.0113672 0 -0.000254102)
(0.0116871 0 -0.0002511)
(0.012004 0 -0.000243412)
(0.0123102 0 -0.000234615)
(0.0126108 0 -0.000241325)
(0.0129185 0 -0.000243248)
(0.0132252 0 -0.000234911)
(0.0135205 0 -0.000226737)
(0.0138073 0 -0.00022338)
(0.014093 0 -0.00022523)
(0.0143805 0 -0.000226406)
(0.0146668 0 -0.000223943)
(0.0149507 0 -0.00022253)
(0.0152316 0 -0.000219276)
(0.0155108 0 -0.000220437)
(0.015787 0 -0.000210818)
(0.0160538 0 -0.000206078)
(0.0163181 0 -0.000211994)
(0.0165905 0 -0.000218202)
(0.0168692 0 -0.000221134)
(0.0171487 0 -0.000220987)
(0.0174258 0 -0.00021692)
(0.0176989 0 -0.000213135)
(0.0179681 0 -0.000210128)
(0.0182345 0 -0.000208464)
(0.018499 0 -0.000207357)
(0.0187635 0 -0.000207642)
(0.0190247 0 -0.000201469)
(0.0192814 0 -0.000206066)
(0.0195423 0 -0.000207819)
(0.019803 0 -0.000199959)
(0.0200531 0 -0.000191508)
(0.0202947 0 -0.000187437)
(0.0205336 0 -0.000185572)
(0.0207717 0 -0.000185826)
(0.0210101 0 -0.000187105)
(0.0212492 0 -0.00018773)
(0.0214881 0 -0.00018756)
(0.0217264 0 -0.000186545)
(0.0219631 0 -0.000184849)
(0.0221975 0 -0.000182854)
(0.0224294 0 -0.000180776)
(0.0226593 0 -0.000179899)
(0.0228884 0 -0.000179844)
(0.0231175 0 -0.000179477)
(0.0233461 0 -0.000179068)
(0.0235726 0 -0.000176934)
(0.0237955 0 -0.000173649)
(0.0240155 0 -0.000171698)
(0.0242351 0 -0.000172444)
(0.0244562 0 -0.000173676)
(0.024677 0 -0.000172307)
(0.0248946 0 -0.000169194)
(0.0251084 0 -0.000165671)
(0.0253218 0 -0.000170063)
(0.0255413 0 -0.000164664)
(0.0257469 0 -0.000164931)
(0.0259695 0 -0.000167331)
(0.0261649 0 -0.000181998)
(0.0264369 0 -0.000186234)
(0.0265857 0 -0.00018238)
(0.0270186 0 -0.00017911)
(0.0267909 0 -0.00017843)
(0.0278333 0 -0.000181685)
(0.0278658 0 -0.000205546)
(0.0918454 0 -0.00730045)
(0.116595 0 -0.0268159)
(0.156107 0 -0.0363579)
(0.174592 0 -0.0235791)
(0.174031 0 -0.015333)
(0.169121 0 -0.0116426)
(0.163694 0 -0.0101886)
(0.159514 0 -0.00821767)
(0.156472 0 -0.00673353)
(0.154073 0 -0.00691973)
(0.152077 0 -0.00973329)
(0.150347 0 -0.0118823)
(0.150433 0 -0.0120044)
(0.15055 0 -0.0106589)
(0.149577 0 -0.00494552)
(0.145847 0 0.00837085)
(0.139875 0 0.0233214)
(0.126309 0 0.0332023)
(0.11433 0 0.0398679)
(0.104814 0 0.0472402)
(0.0959454 0 0.0458285)
(0.091937 0 0.0323577)
(0.0844492 0 0.0239791)
(0.0766799 0 0.0194899)
(0.0710543 0 0.0133969)
(0.065519 0 0.0113065)
(0.0604432 0 0.0128007)
(0.0551422 0 0.0138671)
(0.0493672 0 0.014743)
(0.043489 0 0.0142834)
(0.0374335 0 0.01238)
(0.0325473 0 0.0114221)
(0.0282963 0 0.0110395)
(0.0249496 0 0.00824698)
(0.0217833 0 0.00494994)
(0.0188855 0 0.00516789)
(0.0155524 0 0.00855868)
(0.0116326 0 0.0121308)
(0.00736351 0 0.01327)
(0.00350903 0 0.00983248)
(-0.000314218 0 0.00532825)
(-0.00328297 0 0.00420949)
(-0.00549217 0 0.00552502)
(-0.00856967 0 0.00815552)
(-0.0126911 0 0.0105825)
(-0.0167939 0 0.0105657)
(-0.0208467 0 0.0082911)
(-0.0245776 0 0.00526961)
(-0.0274943 0 0.00404993)
(-0.0295697 0 0.00406191)
(-0.0315039 0 0.00402487)
(-0.0335804 0 0.0040183)
(-0.0361367 0 0.00409721)
(-0.0388168 0 0.00605764)
(-0.0421932 0 0.008617)
(-0.0454478 0 0.00979266)
(-0.0477121 0 0.00916746)
(-0.0498221 0 0.00754381)
(-0.0525337 0 0.00645991)
(-0.0556775 0 0.00668634)
(-0.0594671 0 0.0077478)
(-0.0632919 0 0.00746012)
(-0.066126 0 0.00446174)
(-0.0679995 0 -5.94413e-05)
(-0.068813 0 -0.00254301)
(-0.0691459 0 -0.003133)
(-0.0696668 0 -0.0030249)
(-0.0704744 0 -0.00278621)
(-0.0715459 0 -0.00329791)
(-0.072939 0 -0.00512612)
(-0.0738023 0 -0.00818317)
(-0.0728539 0 -0.0129162)
(-0.0706923 0 -0.0173204)
(-0.0669831 0 -0.0200017)
(-0.0621448 0 -0.0210158)
(-0.0561022 0 -0.0195887)
(-0.0484874 0 -0.0150734)
(-0.0373172 0 -0.00556722)
(-0.0251378 0 0.00143375)
(-0.0198729 0 0.00748133)
(-0.0144712 0 0.0182306)
(-0.0257416 0 0.0128778)
(-0.0195955 0 0.00770015)
(-0.0284617 0 0.00576456)
(-0.0289666 0 0.00407931)
(-0.0329238 0 0.00329855)
(-0.0332475 0 0.00124561)
(-0.03474 0 0.00143002)
(-0.0340239 0 0.000286206)
(-0.0347507 0 7.15851e-06)
(-0.0347385 0 -0.00150473)
(-0.0346929 0 -0.00288862)
(-0.0349599 0 -0.00419831)
(-0.0347758 0 -0.00585821)
(-0.035008 0 -0.00852972)
(-0.0346314 0 -0.0109196)
(-0.0341328 0 -0.0130056)
(-0.0320951 0 -0.0152183)
(-0.0282511 0 -0.0146501)
(-0.0234215 0 -0.0107401)
(-0.0146014 0 -0.00524486)
(-0.00749742 0 -0.00211526)
(-0.000607836 0 0.00363297)
(0.000351097 0 0.00610662)
(0.00262814 0 0.00723747)
(0.00188829 0 0.00392716)
(0.00125123 0 0.000143431)
(-0.000317089 0 0.000682577)
(-0.00217674 0 0.000967503)
(-0.00405228 0 0.00181828)
(-0.00446866 0 0.002286)
(-0.0049118 0 0.00226393)
(-0.00564721 0 0.00116353)
(-0.00626244 0 0.000148077)
(-0.00727526 0 -0.000819279)
(-0.00835696 0 -0.00158137)
(-0.00894545 0 -0.00206865)
(-0.00978985 0 -0.00152262)
(-0.00860819 0 0.00016138)
(-0.0077712 0 0.000145436)
(-0.00560057 0 0.00165696)
(-0.00650302 0 0.00281362)
(-0.00654729 0 0.00405744)
(-0.00765022 0 0.00339024)
(-0.00831967 0 0.00204064)
(-0.00966594 0 0.00205202)
(-0.0111057 0 0.00193739)
(-0.0120793 0 0.0023101)
(-0.0129733 0 0.00250735)
(-0.0139028 0 0.00243497)
(-0.0147427 0 0.00212846)
(-0.0157322 0 0.00211267)
(-0.0166972 0 0.00195607)
(-0.0175746 0 0.00212735)
(-0.0184657 0 0.00208977)
(-0.0193423 0 0.00217052)
(-0.0201991 0 0.00208737)
(-0.0210473 0 0.00201853)
(-0.0218902 0 0.00198986)
(-0.0227349 0 0.00195091)
(-0.0235408 0 0.00193847)
(-0.0243454 0 0.00187462)
(-0.0251151 0 0.00182349)
(-0.0258637 0 0.00172473)
(-0.02658 0 0.00165587)
(-0.0272804 0 0.0016066)
(-0.0279697 0 0.00158714)
(-0.0286394 0 0.00154985)
(-0.0292741 0 0.00149619)
(-0.0298718 0 0.00139254)
(-0.030443 0 0.00131021)
(-0.0310012 0 0.00127017)
(-0.0315449 0 0.00123717)
(-0.0320674 0 0.00119186)
(-0.032552 0 0.00112093)
(-0.0330013 0 0.00105595)
(-0.0334335 0 0.00100181)
(-0.0338524 0 0.000944379)
(-0.0342524 0 0.000890257)
(-0.0346245 0 0.000829044)
(-0.0349684 0 0.000770358)
(-0.0352888 0 0.000729211)
(-0.0355876 0 0.000681846)
(-0.0358572 0 0.000601803)
(-0.0360978 0 0.000528679)
(-0.0363155 0 0.000485249)
(-0.036518 0 0.000454166)
(-0.0366965 0 0.000394046)
(-0.0368451 0 0.000301972)
(-0.0369598 0 0.000231791)
(-0.0370501 0 0.000193806)
(-0.037126 0 0.000158185)
(-0.0371772 0 0.000106125)
(-0.0372024 0 3.15524e-05)
(-0.0372024 0 -4.83669e-05)
(-0.0371724 0 -0.000108259)
(-0.037118 0 -0.000149527)
(-0.037042 0 -0.000190556)
(-0.0369426 0 -0.0002441)
(-0.0368269 0 -0.000291186)
(-0.0366958 0 -0.00033074)
(-0.0365421 0 -0.000378351)
(-0.0363686 0 -0.000437104)
(-0.036166 0 -0.000512566)
(-0.0359365 0 -0.000566797)
(-0.0356883 0 -0.000601082)
(-0.0354227 0 -0.000626417)
(-0.0351445 0 -0.000648015)
(-0.0348591 0 -0.000687807)
(-0.0345568 0 -0.000743404)
(-0.0342369 0 -0.000792189)
(-0.0338947 0 -0.000839494)
(-0.0335279 0 -0.000867818)
(-0.0331451 0 -0.000889277)
(-0.0327509 0 -0.000915072)
(-0.0323492 0 -0.000948058)
(-0.0319388 0 -0.000990013)
(-0.0315108 0 -0.00104636)
(-0.0310582 0 -0.00109367)
(-0.0305882 0 -0.00111664)
(-0.0301128 0 -0.00111613)
(-0.0296296 0 -0.00112939)
(-0.0291342 0 -0.0011651)
(-0.0286168 0 -0.00122063)
(-0.0280818 0 -0.00127721)
(-0.0275387 0 -0.00130872)
(-0.0269858 0 -0.00132157)
(-0.0264221 0 -0.00133623)
(-0.0258402 0 -0.00136766)
(-0.0252376 0 -0.00142403)
(-0.0246218 0 -0.00147435)
(-0.0239997 0 -0.00148519)
(-0.0233814 0 -0.0014611)
(-0.0227534 0 -0.00147071)
(-0.0221022 0 -0.00155164)
(-0.0214327 0 -0.0016158)
(-0.0207516 0 -0.00163872)
(-0.0200697 0 -0.00164199)
(-0.0193831 0 -0.00159851)
(-0.0187102 0 -0.00155661)
(-0.01804 0 -0.00156479)
(-0.0173725 0 -0.00160114)
(-0.016695 0 -0.00163478)
(-0.0160171 0 -0.001623)
(-0.0153546 0 -0.00157863)
(-0.0147023 0 -0.00149157)
(-0.0140718 0 -0.00143113)
(-0.0134621 0 -0.00140257)
(-0.012875 0 -0.00138299)
(-0.0122951 0 -0.00137717)
(-0.0117308 0 -0.00134508)
(-0.0111825 0 -0.00127605)
(-0.0106601 0 -0.00117417)
(-0.0101678 0 -0.00111377)
(-0.00970004 0 -0.00109065)
(-0.0092416 0 -0.00106017)
(-0.00879279 0 -0.00103065)
(-0.00835996 0 -0.00099844)
(-0.00794775 0 -0.000949847)
(-0.00755845 0 -0.000899022)
(-0.00719694 0 -0.000854382)
(-0.00685607 0 -0.000807782)
(-0.0065253 0 -0.000761169)
(-0.00620022 0 -0.000732164)
(-0.00587885 0 -0.000723454)
(-0.00556859 0 -0.000723605)
(-0.00527106 0 -0.000716812)
(-0.00498348 0 -0.00069248)
(-0.00470591 0 -0.00063603)
(-0.00443801 0 -0.000605378)
(-0.00417249 0 -0.000627243)
(-0.00390245 0 -0.00064893)
(-0.00363072 0 -0.000646423)
(-0.00336737 0 -0.000638251)
(-0.00310771 0 -0.00062132)
(-0.00284659 0 -0.000611899)
(-0.00257721 0 -0.000627631)
(-0.00230218 0 -0.000643525)
(-0.00202485 0 -0.000655352)
(-0.00174667 0 -0.000668385)
(-0.001472 0 -0.000671744)
(-0.00119309 0 -0.000679634)
(-0.000898139 0 -0.000699179)
(-0.000591494 0 -0.000722366)
(-0.000279837 0 -0.000750539)
(4.01365e-05 0 -0.000768405)
(0.000362913 0 -0.000768448)
(0.000687993 0 -0.000766804)
(0.00102077 0 -0.000784518)
(0.00136346 0 -0.000821498)
(0.00172044 0 -0.000855267)
(0.00208582 0 -0.000875015)
(0.00245825 0 -0.000892758)
(0.00283585 0 -0.000906339)
(0.00322276 0 -0.000911043)
(0.00361789 0 -0.000924156)
(0.00401857 0 -0.000945998)
(0.004426 0 -0.000968449)
(0.00483973 0 -0.00098977)
(0.0052628 0 -0.00100781)
(0.00569383 0 -0.00102468)
(0.00613273 0 -0.00103995)
(0.00657614 0 -0.00104431)
(0.0070207 0 -0.00104445)
(0.00747023 0 -0.00106092)
(0.00792722 0 -0.00108092)
(0.00838974 0 -0.00109176)
(0.00885488 0 -0.00109889)
(0.00932183 0 -0.00110559)
(0.00979207 0 -0.00110939)
(0.0102653 0 -0.00110871)
(0.0107394 0 -0.00111085)
(0.0112148 0 -0.00111522)
(0.0116903 0 -0.00111808)
(0.0121648 0 -0.00111857)
(0.0126387 0 -0.00111595)
(0.0131125 0 -0.00110868)
(0.0135851 0 -0.00110064)
(0.0140544 0 -0.00109279)
(0.0145175 0 -0.00108441)
(0.0149755 0 -0.00107784)
(0.0154314 0 -0.00106714)
(0.0158831 0 -0.00104961)
(0.0163289 0 -0.00103301)
(0.0167656 0 -0.00101722)
(0.0171935 0 -0.00100034)
(0.0176157 0 -0.000981089)
(0.0180304 0 -0.000958132)
(0.0184342 0 -0.00093412)
(0.0188265 0 -0.000910938)
(0.0192088 0 -0.000887606)
(0.0195807 0 -0.000859765)
(0.019941 0 -0.000826986)
(0.0202872 0 -0.000794755)
(0.020619 0 -0.000765235)
(0.020938 0 -0.000734803)
(0.0212436 0 -0.000700477)
(0.0215347 0 -0.000663825)
(0.0218101 0 -0.000626795)
(0.022069 0 -0.000589595)
(0.0223113 0 -0.00055193)
(0.0225373 0 -0.000512448)
(0.0227468 0 -0.000470904)
(0.0229391 0 -0.000429929)
(0.0231138 0 -0.000389361)
(0.0232698 0 -0.000347279)
(0.0234072 0 -0.000302798)
(0.0235261 0 -0.000257766)
(0.0236266 0 -0.000214856)
(0.0237089 0 -0.000172355)
(0.023772 0 -0.000128971)
(0.0238157 0 -8.2742e-05)
(0.02384 0 -3.41785e-05)
(0.0238448 0 1.17419e-05)
(0.0238307 0 5.43808e-05)
(0.0237981 0 9.59408e-05)
(0.0237468 0 0.000138607)
(0.0236771 0 0.000181789)
(0.0235896 0 0.000225488)
(0.0234842 0 0.000268902)
(0.0233607 0 0.00030997)
(0.0232192 0 0.000349268)
(0.0230612 0 0.000387638)
(0.0228865 0 0.000426979)
(0.0226947 0 0.000466992)
(0.0224878 0 0.000504346)
(0.022266 0 0.000538848)
(0.0220292 0 0.000571683)
(0.0217777 0 0.00060469)
(0.021512 0 0.000639112)
(0.0212327 0 0.000673268)
(0.0209402 0 0.000703501)
(0.0206348 0 0.000730121)
(0.0203174 0 0.000758668)
(0.0199883 0 0.000788235)
(0.0196479 0 0.000814723)
(0.0192959 0 0.000839428)
(0.0189328 0 0.000863307)
(0.0185604 0 0.000886016)
(0.0181789 0 0.000907918)
(0.0177885 0 0.00092866)
(0.0173891 0 0.000948697)
(0.0169814 0 0.000967216)
(0.0165661 0 0.000986235)
(0.0161434 0 0.00100449)
(0.0157138 0 0.00102173)
(0.0152776 0 0.00103585)
(0.014835 0 0.00104893)
(0.0143867 0 0.00106145)
(0.0139329 0 0.00107464)
(0.0134745 0 0.00108675)
(0.0130115 0 0.00109639)
(0.0125448 0 0.00110324)
(0.0120754 0 0.00110895)
(0.0116035 0 0.00111597)
(0.0111291 0 0.00112146)
(0.0106524 0 0.00112605)
(0.0101736 0 0.00112876)
(0.00969478 0 0.00113238)
(0.00921592 0 0.00113358)
(0.00873731 0 0.00113268)
(0.00825867 0 0.00112692)
(0.00778164 0 0.00112268)
(0.00730663 0 0.00111701)
(0.00683331 0 0.00111255)
(0.0063632 0 0.00110465)
(0.00589583 0 0.00109871)
(0.00543343 0 0.00108593)
(0.00497521 0 0.00107403)
(0.00452191 0 0.00106009)
(0.00407362 0 0.00104944)
(0.00363328 0 0.00103331)
(0.00319874 0 0.00101612)
(0.00277145 0 0.000996645)
(0.00235001 0 0.000978632)
(0.00193837 0 0.000957287)
(0.00153504 0 0.00093707)
(0.00114181 0 0.000916961)
(0.000757662 0 0.000894214)
(0.000383055 0 0.000870853)
(1.6304e-05 0 0.000841571)
(-0.000336648 0 0.000815463)
(-0.000681793 0 0.000787724)
(-0.00101348 0 0.000765892)
(-0.00133568 0 0.00073708)
(-0.00164495 0 0.000716578)
(-0.00194612 0 0.000682192)
(-0.00223453 0 0.000659526)
(-0.00251505 0 0.000626793)
(-0.0027812 0 0.000610005)
(-0.00303641 0 0.000582944)
(-0.00327969 0 0.000563947)
(-0.00350944 0 0.000537592)
(-0.00373138 0 0.00050438)
(-0.00394016 0 0.000478519)
(-0.00415015 0 0.00045172)
(-0.00433985 0 0.000437936)
(-0.00452042 0 0.000427831)
(-0.00468051 0 0.000412171)
(-0.00482344 0 0.000359373)
(-0.00497481 0 0.000320997)
(-0.00512254 0 0.000263166)
(-0.00527236 0 0.000284448)
(-0.00543395 0 0.000316037)
(-0.00549962 0 0.000338992)
(-0.00556332 0 0.000321737)
(-0.00555633 0 0.000171004)
(-0.00548095 0 -3.53415e-05)
(-0.00532476 0 -2.89202e-05)
(-0.00524106 0 -0.000160431)
(-0.00527319 0 -0.000248447)
(-0.00532783 0 -0.000235829)
(-0.0053659 0 -0.000124496)
(-0.00536666 0 -4.68964e-05)
(-0.00532902 0 5.89097e-06)
(-0.00531035 0 3.79751e-05)
(-0.0052084 0 -7.73647e-05)
(-0.00518131 0 -0.000112566)
(-0.00509465 0 -0.000197465)
(-0.00525115 0 -0.000215455)
(-0.00522465 0 -0.000184552)
(-0.00516547 0 0.00016673)
(-0.00499499 0 0.000297091)
(-0.0045179 0 -0.000135244)
(-0.00424097 0 -0.000417372)
(-0.0031033 0 -0.00111199)
(-0.00249182 0 -0.00102083)
(-0.00168922 0 -0.00162789)
(-0.00163169 0 -0.00173512)
(-0.00137251 0 -0.00154113)
(-0.0012325 0 -0.00127663)
(-0.000910798 0 -0.000924421)
(-0.000770642 0 -0.000850818)
(-0.000435253 0 -0.000667666)
(-0.000314041 0 -0.000705169)
(-4.54653e-06 0 -0.000455304)
(9.6666e-05 0 -0.000541118)
(0.000417717 0 -0.000371705)
(0.000623848 0 -0.000521832)
(0.00071781 0 -0.000309731)
(0.000914426 0 -0.000723018)
(0.00118186 0 -5.95505e-05)
(0.000848942 0 -0.000400329)
(0.00169002 0 -0.000306383)
(0.00113956 0 9.34343e-05)
(0.00371599 0 -0.00045799)
(0.00172444 0 -0.000645292)
(0.00391787 0 -0.00212569)
(0.00433004 0 -0.000688058)
(0.00552287 0 -0.000933667)
(0.00595803 0 -0.00227543)
(0.00629498 0 -0.00244831)
(0.00675445 0 -0.00200268)
(0.00718417 0 -0.00158316)
(0.00758528 0 -0.0013135)
(0.00797809 0 -0.00117636)
(0.00836176 0 -0.00107283)
(0.00873647 0 -0.000983599)
(0.00910017 0 -0.000911862)
(0.00945772 0 -0.000885855)
(0.00981122 0 -0.00086481)
(0.0101563 0 -0.000823006)
(0.010492 0 -0.000804259)
(0.0108223 0 -0.000788944)
(0.0111483 0 -0.000760896)
(0.0114698 0 -0.000761812)
(0.0117882 0 -0.000753283)
(0.0121036 0 -0.000735219)
(0.0124158 0 -0.000714406)
(0.0127248 0 -0.000725362)
(0.0130319 0 -0.000727078)
(0.0133362 0 -0.000707293)
(0.013636 0 -0.000687176)
(0.0139323 0 -0.000678474)
(0.0142258 0 -0.000678454)
(0.0145163 0 -0.000677557)
(0.0148041 0 -0.000671275)
(0.0150908 0 -0.000669266)
(0.0153755 0 -0.00065899)
(0.0156557 0 -0.000656141)
(0.0159314 0 -0.000635988)
(0.0162066 0 -0.000627203)
(0.0164807 0 -0.000637993)
(0.0167541 0 -0.000650212)
(0.0170267 0 -0.000655608)
(0.0172975 0 -0.000653353)
(0.017567 0 -0.00064701)
(0.0178359 0 -0.000639099)
(0.018103 0 -0.000631897)
(0.0183683 0 -0.000627278)
(0.0186323 0 -0.000623908)
(0.018894 0 -0.000620214)
(0.0191529 0 -0.000607188)
(0.0194085 0 -0.000612678)
(0.019663 0 -0.000614399)
(0.019914 0 -0.000597202)
(0.0201625 0 -0.00057935)
(0.0204094 0 -0.000569788)
(0.0206545 0 -0.000565156)
(0.0208978 0 -0.000563921)
(0.0211392 0 -0.000564181)
(0.0213786 0 -0.000563904)
(0.0216167 0 -0.000562668)
(0.0218538 0 -0.000559921)
(0.0220897 0 -0.00055531)
(0.0223239 0 -0.000549576)
(0.022556 0 -0.000544446)
(0.0227865 0 -0.000541688)
(0.0230155 0 -0.000540998)
(0.0232438 0 -0.000540124)
(0.0234706 0 -0.000536002)
(0.0236946 0 -0.000528213)
(0.0239161 0 -0.000521481)
(0.0241372 0 -0.000519486)
(0.0243589 0 -0.000521046)