/*--------------------------------*- C++ -*----------------------------------*\
| =========                 |                                                 |
| \\      /  F ield         | OpenFOAM: The Open Source CFD Toolbox           |
|  \\    /   O peration     | Version:  v2006                                 |
|   \\  /    A nd           | Website:  www.openfoam.com                      |
|    \\/     M anipulation  |                                                 |
\*---------------------------------------------------------------------------*/
FoamFile
{
    version     2.0;
    format      ascii;
    class       volScalarField;
    location    "5.5";
    object      omega;
}
// * * * * * * * * * * * * * * * * * * * * * * * * * * * * * * * * * * * * * //

dimensions      [0 0 -1 0 0 0 0];


internalField   nonuniform List<scalar> 
33000
(
0.802007
0.802089
0.802186
0.802298
0.802422
0.80255
0.802672
0.802777
0.802853
0.802906
0.802963
0.803054
0.803202
0.803405
0.803659
0.803976
0.80437
0.804838
0.805351
0.805854
0.806269
0.806587
0.807273
0.809103
0.812259
0.816057
0.819494
0.822155
0.824082
0.825299
0.825809
0.825836
0.825871
0.826091
0.826487
0.826869
0.826998
0.826958
0.826996
0.827219
0.827431
0.827259
0.82675
0.826286
0.82623
0.826587
0.827164
0.827519
0.827316
0.826786
0.826327
0.826234
0.826463
0.826712
0.826704
0.826465
0.826223
0.826041
0.825921
0.825758
0.825425
0.825196
0.825338
0.825783
0.826251
0.826342
0.826087
0.825824
0.825736
0.825548
0.825108
0.824416
0.823686
0.822966
0.822334
0.821686
0.821078
0.820177
0.819122
0.818012
0.817166
0.81667
0.816625
0.816996
0.817662
0.818427
0.819071
0.819448
0.81956
0.819529
0.819394
0.819249
0.819083
0.8188
0.818379
0.817736
0.816992
0.815968
0.815188
0.814076
0.813016
0.812813
0.81336
0.813366
0.81299
0.812841
0.813164
0.813504
0.813592
0.81343
0.813317
0.813019
0.812807
0.812755
0.812763
0.812596
0.812371
0.812049
0.8118
0.811689
0.811538
0.811576
0.811431
0.81136
0.811498
0.811584
0.811653
0.811709
0.811706
0.811696
0.811729
0.811755
0.811791
0.811814
0.811841
0.811862
0.811877
0.811901
0.811928
0.811965
0.812004
0.812048
0.812091
0.812134
0.81218
0.812225
0.81226
0.812286
0.812305
0.812324
0.812342
0.812359
0.812368
0.812367
0.812365
0.812362
0.812357
0.812347
0.812332
0.812312
0.812288
0.812261
0.812234
0.812207
0.81218
0.812154
0.812125
0.812094
0.812064
0.812034
0.812
0.811962
0.811926
0.81189
0.811855
0.811818
0.811781
0.811747
0.811717
0.81169
0.811664
0.811641
0.811622
0.811604
0.811586
0.81157
0.811556
0.811545
0.811535
0.811524
0.811512
0.811499
0.811486
0.811471
0.811453
0.811434
0.811412
0.811389
0.811364
0.811339
0.811315
0.811291
0.811267
0.811239
0.81121
0.811182
0.811154
0.811127
0.811099
0.81107
0.81104
0.81101
0.810981
0.810948
0.810914
0.810879
0.810844
0.81081
0.810774
0.810735
0.810692
0.810646
0.8106
0.810555
0.81051
0.810463
0.810414
0.810364
0.810314
0.810266
0.810219
0.810173
0.810127
0.810083
0.81004
0.809999
0.809961
0.809925
0.809889
0.809854
0.809821
0.809789
0.809756
0.809723
0.80969
0.809659
0.809631
0.809604
0.809572
0.80954
0.80951
0.809482
0.809454
0.809425
0.809394
0.809363
0.809329
0.809294
0.809259
0.809222
0.809183
0.809141
0.809097
0.809053
0.809009
0.808966
0.808919
0.808869
0.808817
0.808764
0.808712
0.808661
0.808609
0.808554
0.808496
0.808438
0.808379
0.80832
0.808258
0.808196
0.808135
0.808074
0.80801
0.807944
0.807876
0.807809
0.807742
0.807675
0.807607
0.807537
0.807465
0.807392
0.807318
0.807244
0.80717
0.807095
0.807017
0.806937
0.806856
0.806773
0.806688
0.8066
0.806509
0.806413
0.806309
0.806197
0.806088
0.805983
0.805883
0.805788
0.805699
0.805616
0.805537
0.805464
0.805396
0.805335
0.805281
0.805231
0.805188
0.805151
0.805121
0.805097
0.80508
0.805068
0.805064
0.805066
0.805074
0.805086
0.805103
0.805124
0.805147
0.805172
0.805196
0.80522
0.805243
0.805263
0.80528
0.805293
0.805304
0.805311
0.805316
0.805318
0.805318
0.805315
0.80531
0.805302
0.805292
0.80528
0.805266
0.80525
0.805233
0.805213
0.805192
0.80517
0.805146
0.80512
0.805094
0.805066
0.805037
0.805007
0.804976
0.804945
0.804912
0.804879
0.804845
0.804811
0.804776
0.80474
0.804705
0.804668
0.804632
0.804595
0.804557
0.80452
0.804482
0.804444
0.804406
0.804368
0.80433
0.804291
0.804253
0.804215
0.804176
0.804138
0.8041
0.804062
0.804024
0.803986
0.803948
0.80391
0.803872
0.803835
0.803797
0.80376
0.803723
0.803686
0.803649
0.803613
0.803576
0.80354
0.803504
0.803468
0.803433
0.803397
0.803362
0.803327
0.803292
0.803258
0.803224
0.803191
0.803157
0.803124
0.803091
0.803058
0.803026
0.802994
0.802962
0.80293
0.802897
0.802864
0.802835
0.802802
0.802772
0.802742
0.802697
0.802659
0.802642
0.802595
0.802594
0.802569
0.80262
0.802625
0.802625
0.802614
0.802602
0.802586
0.802568
0.80255
0.802532
0.802513
0.802493
0.802473
0.802451
0.80243
0.802411
0.802389
0.802373
0.802354
0.802352
0.802345
0.802335
0.802323
0.80231
0.802296
0.802282
0.802268
0.802252
0.802233
0.802215
0.802202
0.802181
0.80217
0.802151
0.802091
0.802063
0.802067
0.802006
0.80212
0.802154
0.802523
0.802744
0.802946
0.803098
0.803213
0.803301
0.803368
0.803419
0.803456
0.803485
0.803506
0.803522
0.803535
0.803544
0.80355
0.803555
0.803557
0.803559
0.803559
0.803558
0.803556
0.803553
0.80355
0.803546
0.803542
0.803537
0.803532
0.803526
0.80352
0.803514
0.803507
0.8035
0.803492
0.803483
0.803474
0.803465
0.803456
0.803446
0.803436
0.803426
0.803416
0.803405
0.803395
0.803385
0.803375
0.803365
0.803355
0.803345
0.803335
0.803324
0.803314
0.803303
0.803292
0.803281
0.80327
0.803259
0.803248
0.803237
0.803226
0.803215
0.803204
0.803194
0.803183
0.803173
0.803163
0.803152
0.803142
0.803133
0.803123
0.803113
0.803103
0.803093
0.803084
0.803074
0.803064
0.803056
0.803042
0.803052
0.802981
0.802998
0.802616
0.0481059
0.0773897
0.119384
0.179816
0.260538
0.352882
0.450107
0.542609
0.622311
0.674133
0.682236
0.668107
0.662381
0.675271
0.698268
0.736886
0.800057
0.887139
0.989756
1.09882
1.20165
1.25862
1.23264
1.17853
1.14016
1.10696
1.05015
0.957718
0.8518
0.760541
0.680866
0.617018
0.571483
0.542411
0.523136
0.505185
0.485604
0.468768
0.456856
0.450037
0.446343
0.440399
0.429956
0.420235
0.416486
0.414364
0.409954
0.402807
0.393615
0.386053
0.381857
0.380354
0.37746
0.369622
0.358293
0.347891
0.340881
0.336231
0.333862
0.332352
0.328025
0.323799
0.323737
0.327541
0.333924
0.341894
0.349039
0.355535
0.36643
0.3787
0.390636
0.405108
0.426037
0.458849
0.507188
0.576876
0.667229
0.759364
0.817754
0.881247
1.00269
1.10996
1.18755
1.25398
1.29396
1.32217
1.31333
1.25899
1.14014
0.987373
0.79069
0.577477
0.405014
0.290036
0.237115
0.229999
0.263235
0.334325
0.481361
0.676527
0.787618
0.891273
1.0152
1.03939
0.952884
0.757533
0.579216
0.364604
0.256381
0.215949
0.162421
0.13668
0.11389
0.109726
0.119869
0.148055
0.208214
0.242344
0.235388
0.229278
0.233134
0.19783
0.163773
0.142239
0.131567
0.122299
0.115955
0.107258
0.102229
0.0988752
0.0976305
0.0979609
0.0985887
0.0988989
0.0993204
0.100008
0.100808
0.10161
0.102531
0.103449
0.104252
0.104962
0.105543
0.106137
0.106773
0.107352
0.107804
0.108287
0.108948
0.10976
0.110524
0.111086
0.111485
0.111962
0.112633
0.113393
0.114067
0.114639
0.115232
0.115867
0.116416
0.116821
0.117238
0.117784
0.118288
0.118544
0.118699
0.119049
0.119461
0.119564
0.119355
0.119205
0.119325
0.1195
0.119287
0.118654
0.118031
0.117649
0.117307
0.116729
0.115915
0.11513
0.114454
0.113389
0.111778
0.110235
0.109134
0.108233
0.107154
0.105732
0.104082
0.102402
0.101026
0.0997678
0.0984541
0.0970303
0.0953079
0.093349
0.091532
0.0902122
0.0892002
0.0879378
0.0861826
0.0841306
0.0823023
0.0808763
0.0795826
0.0781499
0.0764089
0.0746152
0.0732204
0.0721292
0.0706519
0.0686649
0.0667642
0.0653028
0.0643397
0.0634015
0.0620642
0.0602999
0.0584966
0.0570914
0.0561171
0.0553523
0.0543658
0.0531275
0.0518423
0.0506164
0.049605
0.048945
0.0483783
0.0475673
0.0466275
0.0457852
0.0450317
0.0444907
0.0441241
0.0437489
0.0432416
0.042761
0.0424318
0.0420825
0.0416894
0.0413066
0.041057
0.0409383
0.040952
0.0407563
0.0403285
0.0401148
0.0400468
0.04001
0.03996
0.0398237
0.0396705
0.0395273
0.0393721
0.039265
0.0391951
0.0390881
0.0389099
0.0387052
0.0385631
0.0385251
0.0385193
0.0384455
0.0382424
0.0379047
0.0376503
0.0375238
0.0374742
0.037462
0.0373943
0.0372097
0.0369846
0.036802
0.0366621
0.0365432
0.036417
0.0363068
0.0362569
0.0362061
0.0360548
0.0358455
0.0356635
0.0355451
0.0354882
0.0354578
0.0354006
0.0352801
0.0351117
0.0349566
0.0348654
0.0348253
0.0347794
0.0346903
0.0345618
0.0344227
0.0343045
0.0342179
0.0341363
0.0340182
0.0338578
0.0337055
0.0335876
0.0334675
0.0332909
0.0330776
0.032914
0.0327858
0.032644
0.032459
0.0322367
0.0320242
0.0318413
0.0316634
0.0314533
0.0312181
0.0309999
0.0308048
0.03061
0.030376
0.030109
0.0298772
0.0296712
0.0294493
0.0291882
0.0289368
0.02873
0.0285457
0.0283658
0.0281753
0.0279685
0.0277636
0.0275756
0.0274099
0.0272681
0.0271417
0.0270139
0.0268775
0.0267613
0.0266841
0.0266336
0.0265914
0.026537
0.0264676
0.0264165
0.0264038
0.0264196
0.0264272
0.0264159
0.0264243
0.0264682
0.0265294
0.0265785
0.026612
0.0266636
0.0267378
0.0268053
0.0268522
0.0269035
0.0269696
0.0270401
0.0271101
0.0271635
0.027206
0.0272564
0.0273159
0.027377
0.0274303
0.0274633
0.0274742
0.0274828
0.0275004
0.0275133
0.0275148
0.0275179
0.0275241
0.0275334
0.0275285
0.0274921
0.0274381
0.0273892
0.0273545
0.0273282
0.0272951
0.0272495
0.0271841
0.0271021
0.0270414
0.0269999
0.0269155
0.0268045
0.0267387
0.0266773
0.0265871
0.0265124
0.0264529
0.0263775
0.0262743
0.026158
0.0260401
0.0259444
0.0258634
0.0257613
0.0256784
0.0255304
0.0253912
0.025242
0.0251427
0.0250453
0.0249406
0.0248559
0.0246769
0.0245426
0.0245452
0.0244012
0.0244785
0.0245137
0.0239555
0.0238301
0.0240475
0.0234275
0.0248848
0.0255547
0.0227626
0.0241708
0.0235774
0.0240651
0.0271843
0.0290112
0.0267821
0.0248337
0.023436
0.0227217
0.0224581
0.0223453
0.0223035
0.0222005
0.0223205
0.0220886
0.0228852
0.0232504
0.0219547
0.0227275
0.0227224
0.0233938
0.0255253
0.0264125
0.0247641
0.0237486
0.0228685
0.0225674
0.0221788
0.022273
0.0220553
0.0227564
0.0227611
0.0219844
0.0225584
0.0223878
0.0226047
0.0297869
0.0312552
0.0253133
0.0349562
0.039199
0.0448151
0.0583826
0.0656153
0.0608691
0.0498469
0.0401434
0.0336285
0.029529
0.0269803
0.0253836
0.024368
0.0237271
0.0233313
0.0230968
0.0229629
0.0229053
0.0229479
0.0230344
0.0231215
0.0232778
0.0233901
0.023471
0.0235324
0.0237303
0.0238632
0.0239506
0.0240212
0.0240607
0.0241087
0.0241504
0.0241697
0.024182
0.0241693
0.0241515
0.0239894
0.0239023
0.0238704
0.0238446
0.0238489
0.0238825
0.0238856
0.023896
0.023926
0.0239666
0.0240125
0.0240518
0.0240642
0.0242077
0.0242514
0.0242272
0.0241865
0.0241368
0.0240696
0.0240145
0.0239872
0.0240035
0.0240589
0.0241131
0.0241181
0.0240541
0.0239742
0.023975
0.0240822
0.024242
0.0243281
0.0242359
0.0240967
0.024091
0.0242243
0.0243028
0.0241582
0.0239692
0.0239441
0.0240249
0.0238505
0.0236922
0.0236652
0.0239906
0.0240578
0.0243342
0.0243944
0.02502
0.021026
0.0228484
0.0360656
0.0550666
0.0825019
0.118555
0.157984
0.194695
0.223415
0.240024
0.241636
0.232258
0.224114
0.228475
0.246527
0.280836
0.340551
0.430406
0.542255
0.66175
0.777394
0.876373
0.94682
0.974618
0.947348
0.885294
0.798914
0.695264
0.590197
0.498531
0.42746
0.375643
0.335519
0.304759
0.283184
0.26912
0.25885
0.248625
0.23795
0.229257
0.226133
0.223959
0.217891
0.207719
0.197682
0.1923
0.191577
0.192984
0.192426
0.187098
0.178171
0.170039
0.165926
0.164533
0.162667
0.157774
0.150396
0.143782
0.13911
0.135729
0.132582
0.12878
0.126176
0.126805
0.130986
0.138333
0.145311
0.148909
0.153396
0.160424
0.165836
0.169554
0.174369
0.183753
0.200104
0.227413
0.26575
0.310643
0.370273
0.433981
0.488162
0.55819
0.621267
0.676572
0.747348
0.825461
0.915278
0.992397
1.02137
0.987603
0.909423
0.78105
0.643166
0.5076
0.391347
0.296873
0.226697
0.172934
0.150496
0.17484
0.25273
0.332215
0.403329
0.468985
0.504367
0.490371
0.44332
0.396616
0.340774
0.258667
0.182444
0.120733
0.0799791
0.0610175
0.0357398
0.0245763
0.0204519
0.0245229
0.0366328
0.0421455
0.0471308
0.0475179
0.0411607
0.0383385
0.0376016
0.0306243
0.0242847
0.0204244
0.0180719
0.016377
0.0152881
0.0141362
0.0134316
0.0129469
0.0128127
0.0129149
0.0131608
0.0134205
0.0135996
0.0137675
0.0139034
0.0140456
0.0142122
0.0143858
0.0145559
0.0147183
0.0148506
0.0149607
0.0150909
0.0152609
0.0154531
0.0156256
0.0157538
0.0158611
0.0159931
0.0161603
0.016333
0.0164772
0.0166021
0.0167461
0.0169085
0.0170478
0.0171424
0.0172302
0.0173456
0.0174521
0.0175009
0.0175251
0.0175923
0.0176721
0.0176767
0.017603
0.0175412
0.0175403
0.0175455
0.0174652
0.0172917
0.0171108
0.016973
0.0168371
0.0166595
0.0164516
0.0162472
0.0160377
0.0157367
0.0153384
0.0149559
0.0146532
0.0144041
0.0141455
0.0138263
0.0134534
0.0130572
0.0127032
0.0123834
0.0120856
0.0117919
0.0114458
0.0110423
0.0106573
0.0103632
0.0101297
0.00985929
0.00951513
0.00914186
0.00880742
0.00853257
0.008276
0.00799884
0.00769376
0.00740005
0.00716403
0.00695743
0.0066991
0.00639369
0.00611278
0.00588769
0.00572227
0.00556668
0.00537524
0.00513974
0.00490291
0.00471497
0.00457348
0.00445698
0.0043288
0.00418274
0.00403329
0.00389334
0.00377418
0.00368663
0.00361415
0.00352788
0.00343031
0.00333945
0.00326107
0.00320576
0.00316765
0.00313055
0.00308216
0.00303265
0.00299394
0.00295744
0.00292455
0.00289422
0.00287163
0.00285829
0.00285413
0.00283675
0.00280597
0.00278809
0.00278219
0.00277887
0.0027716
0.00275858
0.00274691
0.00273815
0.00272924
0.00272276
0.00271561
0.00270138
0.00268403
0.00266948
0.00266017
0.00265735
0.00265597
0.00264791
0.00262976
0.00260329
0.00258284
0.00257207
0.00256708
0.00256327
0.00255596
0.00254313
0.00252769
0.00251307
0.00249986
0.00248878
0.0024788
0.00247095
0.00246748
0.0024641
0.00245377
0.00243842
0.002425
0.00241661
0.00241252
0.00241055
0.00240746
0.0023999
0.00238852
0.0023778
0.00237117
0.00236812
0.00236508
0.00235929
0.00235073
0.00234136
0.00233245
0.00232478
0.00231788
0.00230885
0.0022973
0.00228615
0.00227642
0.00226601
0.00225213
0.00223639
0.00222376
0.00221271
0.00220009
0.00218486
0.00216789
0.00215086
0.00213532
0.00212021
0.00210321
0.00208497
0.00206745
0.00205074
0.00203418
0.00201614
0.00199687
0.00197945
0.0019631
0.00194605
0.00192738
0.00190956
0.00189394
0.00187919
0.0018646
0.00184977
0.00183447
0.00181939
0.00180521
0.00179224
0.00178081
0.00177053
0.00176052
0.00175044
0.00174148
0.00173448
0.00172915
0.00172457
0.00171976
0.00171479
0.00171108
0.00170935
0.00170906
0.00170882
0.00170824
0.00170889
0.00171124
0.00171453
0.00171768
0.00172047
0.00172404
0.00172853
0.00173311
0.00173743
0.00174225
0.00174716
0.00175181
0.00175675
0.00176137
0.00176574
0.00177034
0.00177493
0.00177954
0.00178391
0.00178732
0.00178966
0.00179165
0.00179397
0.00179619
0.00179784
0.00179926
0.00180017
0.00180103
0.00180152
0.00180086
0.00179913
0.00179716
0.00179578
0.00179483
0.00179309
0.00179041
0.00178715
0.00178322
0.00177996
0.00177688
0.00177252
0.0017671
0.00176395
0.00176003
0.00175525
0.00175047
0.00174667
0.00174206
0.0017374
0.00173111
0.00172529
0.00171957
0.00171511
0.00170769
0.00170353
0.00169611
0.00168922
0.00167945
0.00167132
0.0016646
0.00165503
0.00165363
0.00164147
0.0016412
0.00164293
0.0016238
0.00162822
0.00163814
0.00161545
0.00166401
0.0016971
0.00159358
0.00167198
0.00165946
0.0015932
0.00157992
0.00161615
0.00165616
0.0017512
0.00178395
0.00168152
0.00160425
0.00155692
0.00153841
0.00153298
0.00152455
0.0015321
0.00155035
0.00157198
0.00153042
0.00157148
0.00157435
0.00155709
0.00155864
0.00158619
0.00161136
0.00166269
0.00167268
0.0016159
0.00158731
0.0015525
0.00155568
0.00153529
0.00152724
0.00149538
0.00155364
0.00155696
0.00161216
0.00183521
0.00202261
0.00193554
0.00251171
0.00250744
0.0023196
0.00250057
0.00300488
0.0035889
0.00448452
0.00460304
0.00385522
0.00303709
0.00245837
0.00210364
0.00189164
0.0017622
0.00167993
0.00162544
0.00158937
0.00156585
0.00155089
0.00154188
0.0015378
0.00153844
0.00154111
0.00154452
0.00155048
0.00155597
0.00156141
0.00156728
0.00157776
0.00158604
0.00159239
0.00159784
0.00160213
0.00160512
0.00160754
0.00160937
0.00161079
0.00161112
0.00161094
0.00160642
0.00160438
0.00160356
0.00160312
0.00160276
0.00160283
0.00160366
0.00160461
0.00160642
0.00160903
0.00161211
0.00161433
0.00161584
0.00162063
0.00162177
0.00162123
0.00162
0.0016181
0.00161549
0.0016129
0.00161142
0.0016122
0.00161515
0.00161835
0.00161939
0.0016177
0.00161601
0.00161756
0.00162349
0.00162974
0.0016306
0.00162607
0.00162291
0.00162552
0.00163024
0.00163002
0.00162318
0.00161919
0.00162041
0.0016218
0.00161449
0.00161108
0.00161239
0.00162915
0.00162886
0.00167654
0.00171133
0.00179668
0.00157417
0.0120293
0.0180196
0.0268611
0.0397725
0.0571081
0.0766097
0.0954875
0.11076
0.119714
0.120573
0.115535
0.111181
0.113816
0.124819
0.145504
0.177412
0.218224
0.262116
0.305317
0.345124
0.377602
0.400268
0.412115
0.408848
0.376597
0.3242
0.271288
0.231167
0.203185
0.181107
0.163065
0.14819
0.135905
0.126261
0.119581
0.115646
0.113009
0.110425
0.107629
0.104844
0.101479
0.0966834
0.0907321
0.0851169
0.0814766
0.0805668
0.0812628
0.0809377
0.0780768
0.0732101
0.0686514
0.0661931
0.0657201
0.0659225
0.0650881
0.0624964
0.0590569
0.0558581
0.0533339
0.0511353
0.0490477
0.0478793
0.0483844
0.0502017
0.0527364
0.0551069
0.0574103
0.0613392
0.0663976
0.0705185
0.0736295
0.0767365
0.081235
0.088344
0.0997635
0.116923
0.138173
0.160306
0.184344
0.211118
0.248075
0.295073
0.340073
0.399514
0.463075
0.530593
0.609095
0.676474
0.712694
0.716348
0.678696
0.612549
0.531542
0.444611
0.362374
0.289302
0.228334
0.179258
0.146159
0.13006
0.129653
0.142949
0.172803
0.201887
0.217483
0.218173
0.211017
0.202575
0.188214
0.184806
0.17554
0.156982
0.121612
0.08242
0.0484676
0.0357935
0.0190132
0.0114437
0.00817837
0.00715165
0.00820671
0.00860079
0.00859893
0.00837461
0.00780033
0.00852928
0.00979577
0.00864234
0.00710677
0.0061447
0.00531988
0.00475114
0.0043263
0.00384058
0.003507
0.00336157
0.00328163
0.00325172
0.00328839
0.00332666
0.00333127
0.00333693
0.00334108
0.00335767
0.00338529
0.00340949
0.00342764
0.0034487
0.00347364
0.00350184
0.00352903
0.00355268
0.00357667
0.00360433
0.00363441
0.00366419
0.00368966
0.00371277
0.00373998
0.00377195
0.00380174
0.00382289
0.00383891
0.00385635
0.00387261
0.00388165
0.0038872
0.00389741
0.00390821
0.00390695
0.00389115
0.00387519
0.00386895
0.0038638
0.00384564
0.00381213
0.00377309
0.00373752
0.00370414
0.00366798
0.00362765
0.00358388
0.00353421
0.00347133
0.00339826
0.00332776
0.00326677
0.00321412
0.00316167
0.00310214
0.00303618
0.00296541
0.00289734
0.00283386
0.00277577
0.00272269
0.00266677
0.00260294
0.00253802
0.00248227
0.00243561
0.00238901
0.00233636
0.00228042
0.00222615
0.002177
0.00213183
0.00208733
0.00204314
0.00200083
0.00196139
0.00192369
0.00188427
0.00184253
0.00180353
0.00176976
0.00174068
0.00171272
0.00168403
0.00165377
0.00162447
0.00159839
0.00157433
0.00155218
0.00153192
0.00151321
0.00149543
0.00147757
0.00145998
0.00144415
0.00143025
0.00141797
0.00140623
0.00139385
0.00138264
0.00137392
0.00136619
0.00135833
0.00135054
0.00134324
0.00133735
0.00133241
0.00132739
0.00132218
0.0013174
0.00131345
0.00131053
0.00130801
0.00130535
0.00130266
0.0013003
0.00129815
0.00129599
0.001294
0.00129256
0.00129141
0.00128986
0.00128811
0.00128673
0.0012854
0.00128368
0.00128202
0.00128068
0.00127959
0.00127905
0.0012785
0.00127732
0.00127565
0.001274
0.00127263
0.00127151
0.00127067
0.00127025
0.00126995
0.00126944
0.00126868
0.00126773
0.0012669
0.00126635
0.00126601
0.00126618
0.001267
0.0012674
0.00126654
0.00126537
0.00126513
0.00126571
0.00126664
0.00126761
0.00126787
0.00126733
0.00126695
0.00126706
0.00126731
0.00126783
0.00126827
0.00126784
0.0012673
0.00126687
0.00126625
0.00126557
0.00126448
0.00126317
0.00126216
0.00126113
0.00125951
0.00125704
0.00125451
0.00125234
0.00125014
0.00124725
0.00124381
0.00124026
0.00123651
0.00123286
0.00122899
0.00122444
0.00121976
0.00121522
0.00121034
0.00120531
0.00120032
0.00119515
0.00118981
0.00118449
0.00117904
0.00117347
0.00116832
0.00116338
0.00115822
0.00115302
0.00114807
0.0011433
0.00113863
0.0011341
0.00112975
0.00112567
0.00112187
0.00111818
0.00111459
0.00111126
0.00110814
0.00110523
0.00110262
0.00110015
0.00109783
0.00109579
0.00109399
0.00109233
0.00109079
0.00108936
0.00108808
0.00108708
0.00108632
0.00108568
0.00108503
0.00108443
0.00108393
0.0010836
0.00108344
0.00108337
0.00108323
0.00108305
0.00108302
0.00108313
0.00108325
0.00108326
0.00108322
0.0010833
0.00108348
0.00108361
0.00108363
0.00108358
0.00108355
0.00108361
0.00108365
0.00108353
0.00108332
0.00108317
0.00108307
0.00108291
0.00108263
0.00108227
0.00108197
0.00108163
0.0010812
0.00108071
0.00108028
0.00107982
0.00107931
0.00107868
0.0010781
0.00107755
0.00107706
0.00107647
0.00107592
0.0010752
0.00107453
0.00107382
0.0010734
0.00107274
0.00107224
0.00107146
0.00107051
0.00106929
0.0010696
0.00106863
0.00106947
0.00106814
0.00106467
0.0010624
0.00106063
0.00106293
0.00106388
0.00107193
0.00107515
0.00107399
0.00107711
0.00108591
0.00108808
0.00114474
0.00116511
0.00111859
0.00109568
0.00108702
0.0010875
0.00107827
0.00107802
0.00106485
0.00106193
0.00106097
0.00106609
0.00106567
0.0010718
0.00107296
0.0010748
0.00107809
0.0010913
0.0011144
0.00112212
0.00109275
0.00108086
0.00107488
0.00107206
0.00106356
0.00106271
0.00106138
0.00106058
0.00106073
0.00105643
0.00105323
0.00105353
0.00110374
0.00109963
0.00106928
0.00114784
0.00118742
0.00135372
0.00145642
0.00183642
0.00195006
0.0016648
0.00150147
0.00141997
0.00137951
0.00132336
0.00129279
0.00123651
0.00121599
0.00121368
0.00119559
0.00116587
0.00113811
0.00111639
0.00109973
0.00108686
0.00107681
0.00106879
0.00106265
0.00105785
0.00105396
0.0010511
0.00104908
0.00104766
0.00104666
0.00104605
0.00104572
0.00104564
0.00104577
0.00104613
0.00104672
0.00104728
0.0010478
0.00104829
0.00104871
0.00104901
0.00104925
0.00104953
0.00104983
0.00105014
0.00105045
0.00105083
0.00105114
0.00105136
0.0010515
0.00105162
0.00105175
0.00105189
0.00105206
0.00105227
0.00105249
0.00105271
0.00105291
0.00105306
0.00105309
0.00105315
0.00105324
0.0010533
0.0010533
0.00105322
0.0010531
0.00105301
0.00105304
0.00105317
0.00105333
0.00105343
0.00105348
0.00105352
0.0010536
0.00105364
0.00105364
0.00105364
0.00105369
0.00105377
0.00105373
0.00105356
0.00105346
0.00105357
0.00105366
0.00105355
0.00105345
0.00105363
0.00105382
0.00105268
0.00105946
0.00106113
0.00110792
0.00114704
0.00123082
0.00113861
0.00772296
0.0108362
0.0156143
0.0227777
0.0326953
0.0442976
0.056175
0.0663629
0.07269
0.0735441
0.0700923
0.0666107
0.0668086
0.0711483
0.0794189
0.0902812
0.101067
0.11021
0.118115
0.124586
0.128617
0.129913
0.128317
0.124087
0.117547
0.109352
0.100553
0.0922454
0.0851257
0.0791907
0.0740384
0.0692413
0.0646357
0.0604777
0.0574432
0.0562242
0.0561969
0.0560687
0.055187
0.0535437
0.0511758
0.0481569
0.044834
0.0415511
0.0392691
0.0386234
0.0388278
0.038533
0.0369353
0.0342193
0.0316373
0.0305187
0.0308606
0.031554
0.0315623
0.0303572
0.0282394
0.0261898
0.0247666
0.0236773
0.022737
0.022253
0.0224889
0.0231143
0.0235598
0.0240686
0.0253817
0.0278819
0.0308326
0.0331441
0.0345363
0.0358562
0.0375536
0.0405453
0.0454689
0.0536769
0.0637474
0.0748959
0.0849858
0.0955196
0.107772
0.123893
0.14429
0.175828
0.220526
0.271364
0.332251
0.400607
0.45417
0.489072
0.503195
0.490108
0.458764
0.412918
0.360186
0.307668
0.258355
0.213341
0.174941
0.141563
0.114418
0.09593
0.0853735
0.081055
0.0805944
0.0835424
0.0847518
0.086211
0.0862824
0.0902335
0.0942914
0.0988171
0.106549
0.110395
0.105516
0.0872929
0.0659031
0.0417674
0.0312021
0.0167345
0.0095408
0.00614291
0.00426085
0.00394444
0.00394942
0.0039072
0.00395257
0.00398893
0.00490534
0.00632339
0.00597895
0.00515961
0.00459974
0.00408459
0.0034692
0.00315341
0.00294523
0.00263856
0.00244427
0.00228911
0.00218392
0.00214641
0.00212693
0.00210667
0.00209597
0.0020859
0.00207848
0.0020767
0.00207663
0.00207755
0.00207997
0.00208263
0.00208572
0.00208883
0.00209216
0.00209643
0.00210159
0.00210671
0.0021111
0.00211549
0.00212078
0.00212513
0.00212718
0.00212799
0.00212892
0.00212947
0.00212926
0.00212853
0.00212695
0.00212364
0.00211845
0.00211263
0.00210783
0.00210328
0.00209634
0.00208673
0.00207592
0.00206542
0.00205614
0.00204659
0.00203447
0.0020201
0.00200498
0.00198994
0.00197491
0.00196011
0.00194517
0.00192889
0.00191181
0.00189515
0.0018794
0.00186482
0.00185008
0.00183322
0.00181508
0.00179801
0.0017832
0.00176938
0.00175446
0.00173791
0.00172095
0.00170629
0.00169335
0.00167894
0.00166166
0.00164405
0.00162885
0.0016157
0.00160292
0.00158837
0.00157152
0.00155547
0.00154242
0.00153039
0.00151711
0.0015027
0.00148783
0.0014735
0.00146126
0.00145071
0.00143986
0.00142753
0.00141463
0.00140209
0.0013912
0.00138177
0.00137285
0.00136434
0.00135554
0.00134614
0.0013367
0.00132824
0.00132178
0.00131586
0.00130904
0.00130193
0.00129588
0.00129072
0.00128578
0.00128155
0.00127752
0.00127332
0.00126909
0.00126509
0.00126142
0.00125833
0.00125621
0.00125471
0.00125273
0.00125016
0.00124761
0.00124582
0.00124453
0.00124293
0.00124129
0.00123998
0.00123884
0.00123773
0.00123698
0.00123675
0.00123583
0.00123431
0.00123303
0.00123194
0.00123143
0.00123156
0.00123165
0.0012312
0.00123006
0.00122882
0.00122819
0.00122835
0.00122868
0.00122842
0.00122799
0.00122805
0.00122822
0.00122798
0.00122759
0.00122764
0.00122846
0.00122946
0.00122988
0.00122945
0.00122898
0.00122951
0.00123096
0.00123199
0.00123215
0.00123206
0.00123224
0.00123308
0.00123404
0.00123444
0.00123456
0.00123465
0.00123446
0.00123467
0.00123507
0.00123474
0.00123397
0.00123314
0.00123243
0.00123199
0.00123097
0.00122948
0.00122782
0.00122598
0.00122406
0.00122191
0.00121959
0.00121682
0.00121398
0.00121113
0.00120777
0.001204
0.00120017
0.00119648
0.00119281
0.00118861
0.001184
0.00117931
0.00117476
0.00117042
0.00116604
0.00116121
0.00115607
0.00115123
0.00114675
0.00114232
0.00113772
0.00113308
0.00112869
0.00112447
0.00112036
0.0011163
0.00111238
0.00110873
0.00110523
0.00110186
0.00109877
0.00109583
0.00109297
0.00109035
0.00108791
0.00108563
0.00108357
0.0010817
0.00107995
0.00107828
0.00107672
0.00107535
0.00107417
0.00107317
0.00107228
0.00107142
0.00107062
0.00106992
0.00106931
0.00106882
0.00106844
0.00106805
0.00106767
0.00106739
0.0010672
0.00106702
0.00106679
0.00106659
0.00106646
0.00106635
0.00106624
0.00106611
0.00106596
0.00106581
0.00106569
0.00106556
0.00106537
0.00106516
0.00106496
0.00106474
0.0010645
0.0010642
0.00106391
0.00106359
0.00106325
0.00106286
0.00106249
0.00106207
0.00106167
0.00106116
0.00106075
0.00106029
0.00105993
0.00105942
0.001059
0.00105846
0.00105818
0.00105767
0.00105742
0.00105682
0.00105614
0.00105525
0.00105549
0.00105491
0.00105598
0.00105538
0.00105226
0.00105009
0.00105316
0.00105468
0.00105349
0.0010606
0.00106399
0.0010632
0.00106606
0.00107409
0.00107964
0.00113953
0.00116384
0.00111595
0.00109144
0.00108091
0.00107951
0.00106853
0.00106625
0.00105247
0.00104843
0.00104587
0.00105461
0.00105825
0.0010646
0.00106653
0.00107331
0.00107652
0.00111301
0.00112254
0.00110214
0.00108195
0.0010719
0.00106872
0.00106519
0.00105473
0.00105283
0.00105041
0.00104819
0.00104934
0.00104607
0.00103877
0.00104192
0.00109434
0.00109971
0.00115051
0.00117161
0.00128585
0.00140473
0.00157255
0.00191244
0.00202209
0.00172493
0.00154287
0.00144061
0.00137605
0.00128334
0.0012192
0.00114954
0.00109909
0.00109037
0.00109745
0.00110215
0.00110289
0.0011005
0.00109509
0.00108821
0.00108106
0.00107409
0.00106761
0.00106176
0.00105657
0.00105226
0.00104864
0.0010455
0.00104295
0.00104097
0.00103948
0.00103837
0.00103751
0.00103684
0.0010364
0.00103618
0.00103622
0.00103626
0.00103629
0.0010364
0.00103653
0.00103669
0.00103686
0.00103707
0.00103728
0.00103747
0.0010377
0.00103796
0.00103822
0.00103846
0.00103865
0.0010388
0.00103894
0.00103905
0.00103916
0.00103928
0.0010394
0.00103951
0.0010396
0.00103967
0.00103972
0.00103974
0.00103979
0.00103986
0.00103991
0.00103994
0.00103993
0.00103989
0.00103987
0.00103989
0.00103994
0.00103998
0.00103998
0.00103997
0.00103995
0.00103991
0.00103986
0.00103984
0.0010399
0.00103994
0.00103982
0.00103962
0.00103963
0.00103986
0.00103997
0.00103972
0.00103957
0.00103989
0.0010401
0.00103983
0.00103872
0.00104591
0.00104751
0.00109436
0.00113399
0.0012179
0.00112914
0.00592624
0.00778848
0.0107791
0.0153566
0.0217948
0.0294195
0.0373712
0.0443044
0.0486162
0.0489882
0.0463615
0.0439109
0.0439633
0.0464962
0.0506658
0.0547621
0.057037
0.057523
0.057565
0.0574912
0.0572331
0.0568605
0.056159
0.0549455
0.0530787
0.0505926
0.0478397
0.0453343
0.0433507
0.0417689
0.0402801
0.0385918
0.0365833
0.0343223
0.0323449
0.0312163
0.0307415
0.0304591
0.0301666
0.0296703
0.0287241
0.0271622
0.0252211
0.0233976
0.022271
0.0221697
0.0224819
0.0223454
0.0214324
0.0199534
0.0185049
0.0177416
0.0178151
0.0184034
0.0189305
0.0187142
0.0176511
0.0162649
0.0151808
0.0144821
0.0141
0.0141416
0.014473
0.0147654
0.0146603
0.0145675
0.0151746
0.0164975
0.018053
0.0192677
0.0197803
0.019959
0.0202929
0.0212136
0.0229539
0.0263176
0.0318966
0.0382344
0.0435816
0.048062
0.0529405
0.0587239
0.066647
0.0781621
0.0959283
0.120305
0.151989
0.196542
0.244949
0.282909
0.3161
0.332457
0.333318
0.3234
0.302213
0.275239
0.245856
0.216019
0.187674
0.160642
0.13541
0.113622
0.0935894
0.0766173
0.0632418
0.052727
0.0446636
0.0384105
0.0344535
0.0346241
0.0381163
0.044379
0.0529868
0.0608601
0.0679296
0.0756094
0.0799432
0.0781564
0.0673106
0.0542363
0.0383293
0.0295042
0.01652
0.00968607
0.00622665
0.00414038
0.003651
0.00351927
0.00342906
0.00350962
0.00357216
0.00460119
0.00605981
0.00613169
0.00534933
0.00472596
0.00429754
0.00383569
0.00345946
0.00313311
0.00270106
0.00241435
0.00221056
0.00208347
0.0020359
0.00201165
0.00198642
0.00196713
0.00194925
0.00193916
0.00193752
0.00193744
0.00193556
0.00193282
0.00193061
0.00193111
0.00193332
0.00193617
0.00193704
0.00193608
0.00193558
0.00193561
0.0019351
0.0019341
0.00193312
0.00193118
0.00192793
0.00192421
0.00192032