/*--------------------------------*- C++ -*----------------------------------*\
| =========                 |                                                 |
| \\      /  F ield         | OpenFOAM: The Open Source CFD Toolbox           |
|  \\    /   O peration     | Version:  v2006                                 |
|   \\  /    A nd           | Website:  www.openfoam.com                      |
|    \\/     M anipulation  |                                                 |
\*---------------------------------------------------------------------------*/
FoamFile
{
    version     2.0;
    format      ascii;
    class       surfaceScalarField;
    location    "5.5";
    object      phi;
}
// * * * * * * * * * * * * * * * * * * * * * * * * * * * * * * * * * * * * * //

dimensions      [0 3 -1 0 0 0 0];
oriented        oriented;


internalField   nonuniform List<scalar> 
65390
(
-0.000102705
-2.24508e-07
-0.000102254
-4.52244e-07
-0.000101964
-2.90148e-07
-0.000102103
1.37149e-07
-0.000102682
5.78926e-07
-0.0001036
9.17212e-07
-0.000104452
8.51656e-07
-0.000104795
3.42162e-07
-0.000103633
-1.1615e-06
-0.000100182
-3.4517e-06
-9.4043e-05
-6.13904e-06
-8.62447e-05
-7.79847e-06
-7.84207e-05
-7.82411e-06
-7.09003e-05
-7.52048e-06
-6.27963e-05
-8.10409e-06
-5.44972e-05
-8.29913e-06
-4.64495e-05
-8.04769e-06
-3.92512e-05
-7.19835e-06
-3.33238e-05
-5.92741e-06
-2.91913e-05
-4.13253e-06
-2.72105e-05
-1.98088e-06
-2.76007e-05
3.9027e-07
-3.08809e-05
3.28013e-06
-3.73926e-05
6.51175e-06
-4.49881e-05
7.5955e-06
-5.04561e-05
5.46801e-06
-5.31786e-05
2.72247e-06
-5.45313e-05
1.35271e-06
-5.52861e-05
7.54876e-07
-5.54629e-05
1.76789e-07
-5.50197e-05
-4.4315e-07
-5.40207e-05
-9.99031e-07
-5.27542e-05
-1.26643e-06
-5.14782e-05
-1.276e-06
-5.04208e-05
-1.05736e-06
-4.96398e-05
-7.80909e-07
-4.88228e-05
-8.16986e-07
-4.77907e-05
-1.03203e-06
-4.66579e-05
-1.13281e-06
-4.57127e-05
-9.45126e-07
-4.50606e-05
-6.52026e-07
-4.42461e-05
-8.14461e-07
-4.29107e-05
-1.33537e-06
-4.10706e-05
-1.84008e-06
-3.91636e-05
-1.90694e-06
-3.75295e-05
-1.63406e-06
-3.64434e-05
-1.08611e-06
-3.57406e-05
-7.02708e-07
-3.48365e-05
-9.04108e-07
-3.3471e-05
-1.3655e-06
-3.16941e-05
-1.77684e-06
-2.98904e-05
-1.8037e-06
-2.83715e-05
-1.51889e-06
-2.71839e-05
-1.18757e-06
-2.608e-05
-1.10386e-06
-2.47964e-05
-1.28365e-06
-2.33676e-05
-1.42868e-06
-2.18737e-05
-1.49395e-06
-2.03891e-05
-1.48452e-06
-1.88889e-05
-1.50017e-06
-1.71296e-05
-1.75924e-06
-1.51517e-05
-1.97786e-06
-1.3297e-05
-1.85469e-06
-1.18605e-05
-1.43643e-06
-1.09345e-05
-9.26003e-07
-1.00951e-05
-8.39311e-07
-9.01932e-06
-1.07571e-06
-7.79765e-06
-1.22161e-06
-6.81227e-06
-9.85315e-07
-6.03435e-06
-7.77847e-07
-5.25853e-06
-7.75744e-07
-4.21989e-06
-1.03856e-06
-2.90655e-06
-1.31327e-06
-1.33453e-06
-1.57194e-06
3.75173e-07
-1.70962e-06
2.16509e-06
-1.78983e-06
3.80912e-06
-1.64394e-06
5.07984e-06
-1.27063e-06
6.61141e-06
-1.53149e-06
7.5707e-06
-9.59251e-07
8.2505e-06
-6.79761e-07
8.31739e-06
-6.68404e-08
8.39435e-06
-7.69273e-08
8.24186e-06
1.5253e-07
7.58376e-06
6.58138e-07
6.483e-06
1.1008e-06
5.00852e-06
1.47453e-06
3.626e-06
1.38257e-06
2.54677e-06
1.07928e-06
1.80389e-06
7.42922e-07
1.42383e-06
3.80101e-07
1.34164e-06
8.22394e-08
1.21806e-06
1.23638e-07
1.03268e-06
1.85438e-07
6.47566e-07
3.85174e-07
1.33159e-07
5.14475e-07
-8.93904e-07
1.02713e-06
-2.23327e-06
1.33944e-06
-4.7629e-06
2.52969e-06
-8.05051e-06
3.28768e-06
-1.09419e-05
2.89148e-06
-1.26918e-05
1.74995e-06
-1.304e-05
3.4819e-07
-1.31479e-05
1.08009e-07
-1.25887e-05
-5.59218e-07
-1.19804e-05
-6.0824e-07
-1.19054e-05
-7.49908e-08
-1.22075e-05
3.02204e-07
-1.23378e-05
1.30296e-07
-1.20965e-05
-2.41201e-07
-1.189e-05
-2.06416e-07
-1.14706e-05
-4.19378e-07
-1.09571e-05
-5.13416e-07
-1.05584e-05
-3.98674e-07
-1.02901e-05
-2.68173e-07
-1.00913e-05
-1.98813e-07
-1.01498e-05
5.85493e-08
-1.03262e-05
1.76438e-07
-1.03378e-05
1.16864e-08
-1.01484e-05
-1.89373e-07
-9.85795e-06
-2.90476e-07
-9.60402e-06
-2.53926e-07
-9.21639e-06
-3.87617e-07
-8.79597e-06
-4.20429e-07
-8.46161e-06
-3.34361e-07
-8.11401e-06
-3.47605e-07
-7.75774e-06
-3.56279e-07
-7.41606e-06
-3.41693e-07
-7.02521e-06
-3.9086e-07
-6.59512e-06
-4.30102e-07
-6.17582e-06
-4.19313e-07
-5.74867e-06
-4.27168e-07
-5.32834e-06
-4.20345e-07
-4.88603e-06
-4.42317e-07
-4.43928e-06
-4.46763e-07
-3.98519e-06
-4.54106e-07
-3.51239e-06
-4.72803e-07
-3.03495e-06
-4.77454e-07
-2.54977e-06
-4.85184e-07
-2.06707e-06
-4.82712e-07
-1.58532e-06
-4.81754e-07
-1.11034e-06
-4.74977e-07
-6.39572e-07
-4.70773e-07
-1.68787e-07
-4.70784e-07
2.94536e-07
-4.6332e-07
7.39092e-07
-4.44548e-07
1.1757e-06
-4.36598e-07
1.61039e-06
-4.34674e-07
2.04691e-06
-4.36498e-07
2.48465e-06
-4.37708e-07
2.91409e-06
-4.29417e-07
3.32851e-06
-4.14383e-07
3.73499e-06
-4.06438e-07
4.14395e-06
-4.0892e-07
4.55555e-06
-4.11564e-07
4.96408e-06
-4.08486e-07
5.36541e-06
-4.01299e-07
5.75964e-06
-3.94192e-07
6.14852e-06
-3.88855e-07
6.53368e-06
-3.85136e-07
6.91362e-06
-3.79934e-07
7.28921e-06
-3.75577e-07
7.66088e-06
-3.71671e-07
8.02868e-06
-3.67808e-07
8.38834e-06
-3.59669e-07
8.73639e-06
-3.48058e-07
9.07904e-06
-3.42672e-07
9.41893e-06
-3.3991e-07
9.74991e-06
-3.31003e-07
1.00669e-05
-3.17062e-07
1.03756e-05
-3.0871e-07
1.06803e-05
-3.04734e-07
1.0978e-05
-2.97685e-07
1.12631e-05
-2.85164e-07
1.15331e-05
-2.70019e-07
1.17936e-05
-2.60476e-07
1.20486e-05
-2.55036e-07
1.2294e-05
-2.45425e-07
1.25255e-05
-2.31465e-07
1.27429e-05
-2.17453e-07
1.29498e-05
-2.06857e-07
1.31461e-05
-1.96331e-07
1.33261e-05
-1.79934e-07
1.34901e-05
-1.64001e-07
1.36442e-05
-1.54124e-07
1.37896e-05
-1.45373e-07
1.39205e-05
-1.3093e-07
1.40334e-05
-1.12849e-07
1.41291e-05
-9.5677e-08
1.42096e-05
-8.05349e-08
1.4277e-05
-6.73787e-08
1.43313e-05
-5.4289e-08
1.43701e-05
-3.87953e-08
1.43896e-05
-1.94548e-08
1.43912e-05
-1.66977e-09
1.43758e-05
1.53868e-08
1.43456e-05
3.02364e-08
1.43029e-05
4.26969e-08
1.42467e-05
5.61914e-08
1.41731e-05
7.36631e-08
1.40778e-05
9.5264e-08
1.39637e-05
1.14136e-07
1.3835e-05
1.28689e-07
1.36958e-05
1.39192e-07
1.35444e-05
1.51413e-07
1.33764e-05
1.67979e-07
1.3191e-05
1.85412e-07
1.29896e-05
2.01441e-07
1.27773e-05
2.12318e-07
1.25563e-05
2.21042e-07
1.23217e-05
2.34521e-07
1.20691e-05
2.52663e-07
1.18041e-05
2.64966e-07
1.15352e-05
2.68924e-07
1.12624e-05
2.7281e-07
1.09813e-05
2.81111e-07
1.06854e-05
2.95914e-07
1.03762e-05
3.09173e-07
1.00612e-05
3.15019e-07
9.74724e-06
3.1392e-07
9.43494e-06
3.12284e-07
9.11991e-06
3.15011e-07
8.79752e-06
3.22371e-07
8.46582e-06
3.31687e-07
8.13165e-06
3.3414e-07
7.79991e-06
3.31722e-07
7.47155e-06
3.28328e-07
7.14761e-06
3.23912e-07
6.82547e-06
3.22104e-07
6.49932e-06
3.26113e-07
6.17077e-06
3.28514e-07
5.84685e-06
3.23879e-07
5.52924e-06
3.17561e-07
5.21701e-06
3.12184e-07
4.91117e-06
3.05796e-07
4.60935e-06
3.01771e-07
4.30926e-06
3.00032e-07
4.01244e-06
2.96763e-07
3.72211e-06
2.90276e-07
3.43766e-06
2.84385e-07
3.15686e-06
2.80744e-07
2.88162e-06
2.75173e-07
2.61526e-06
2.66305e-07
2.35792e-06
2.57289e-07
2.1067e-06
2.51164e-07
1.8593e-06
2.47352e-07
1.61242e-06
2.46841e-07
1.37271e-06
2.39685e-07
1.14667e-06
2.26012e-07
9.2791e-07
2.18746e-07
7.14198e-07
2.13703e-07
5.04882e-07
2.09313e-07
3.00219e-07
2.04667e-07
1.03073e-07
1.97153e-07
-8.60521e-08
1.89135e-07
-2.67988e-07
1.81945e-07
-4.42694e-07
1.74712e-07
-6.11783e-07
1.69091e-07
-7.75871e-07
1.64085e-07
-9.33977e-07
1.58094e-07
-1.08491e-06
1.50914e-07
-1.22757e-06
1.42643e-07
-1.36353e-06
1.3593e-07
-1.49535e-06
1.31793e-07
-1.62404e-06
1.28663e-07
-1.74866e-06
1.24595e-07
-1.86641e-06
1.17738e-07
-1.97404e-06
1.0761e-07
-2.07489e-06
1.00843e-07
-2.17086e-06
9.59631e-08
-2.26241e-06
9.15412e-08
-2.35093e-06
8.85197e-08
-2.43553e-06
8.45809e-08
-2.51345e-06
7.79126e-08
-2.58461e-06
7.11398e-08
-2.65061e-06
6.5976e-08
-2.71163e-06
6.09882e-08
-2.76746e-06
5.58006e-08
-2.81784e-06
5.03458e-08
-2.86336e-06
4.5489e-08
-2.90614e-06
4.27553e-08
-2.94638e-06
4.02108e-08
-2.9809e-06
3.44946e-08
-3.00869e-06
2.77644e-08
-3.03137e-06
2.26594e-08
-3.05004e-06
1.86575e-08
-3.06489e-06
1.48284e-08
-3.07653e-06
1.16192e-08
-3.08546e-06
8.91175e-09
-3.09019e-06
4.71563e-09
-3.08945e-06
-7.55864e-10
-3.08376e-06
-5.70688e-09
-3.07397e-06
-9.81058e-09
-3.06054e-06
-1.34498e-08
-3.04483e-06
-1.57221e-08
-3.02599e-06
-1.88531e-08
-3.00182e-06
-2.41886e-08
-2.97345e-06
-2.83875e-08
-2.9408e-06
-3.26543e-08
-2.90348e-06
-3.73344e-08
-2.86348e-06
-4.00129e-08
-2.81998e-06
-4.35079e-08
-2.77128e-06
-4.87049e-08
-2.71782e-06
-5.34636e-08
-2.65983e-06
-5.79964e-08
-2.5984e-06
-6.14259e-08
-2.53255e-06
-6.58588e-08
-2.46166e-06
-7.08845e-08
-2.38547e-06
-7.61887e-08
-2.30455e-06
-8.09227e-08
-2.22076e-06
-8.37858e-08
-2.13398e-06
-8.67807e-08
-2.04319e-06
-9.07907e-08
-1.94734e-06
-9.58437e-08
-1.84734e-06
-1.00001e-07
-1.74519e-06
-1.02149e-07
-1.64115e-06
-1.04039e-07
-1.53453e-06
-1.06616e-07
-1.4259e-06
-1.08623e-07
-1.31589e-06
-1.1001e-07
-1.20605e-06
-1.09833e-07
-1.09725e-06
-1.08803e-07
-9.88733e-07
-1.08507e-07
-8.8077e-07
-1.07957e-07
-7.7472e-07
-1.06044e-07
-6.72191e-07
-1.02522e-07
-5.73417e-07
-9.87673e-08
-4.77365e-07
-9.6045e-08
-3.84034e-07
-9.33234e-08
-2.94258e-07
-8.97704e-08
-2.09006e-07
-8.52454e-08
-1.28752e-07
-8.02488e-08
-5.21464e-08
-7.66005e-08
2.1977e-08
-7.41186e-08
9.39766e-08
-7.19949e-08
1.63656e-07
-6.96744e-08
2.30812e-07
-6.71506e-08
2.95468e-07
-6.46499e-08
3.57742e-07
-6.22681e-08
4.18471e-07
-6.07224e-08
4.78159e-07
-5.96802e-08
5.36817e-07
-5.86511e-08
5.94369e-07
-5.75453e-08
6.50285e-07
-5.59087e-08
7.04761e-07
-5.44704e-08
7.58659e-07
-5.38913e-08
8.12284e-07
-5.36197e-08
8.65491e-07
-5.32017e-08
9.17753e-07
-5.22575e-08
9.68898e-07
-5.11401e-08
1.01924e-06
-5.03332e-08
1.06937e-06
-5.01257e-08
1.11928e-06
-4.99043e-08
1.16828e-06
-4.89959e-08
1.21642e-06
-4.81347e-08
1.26412e-06
-4.76819e-08
1.31139e-06
-4.72678e-08
1.35806e-06
-4.66594e-08
1.40401e-06
-4.59433e-08
1.44937e-06
-4.53405e-08
1.49407e-06
-4.46971e-08
1.53808e-06
-4.39954e-08
1.58135e-06
-4.3268e-08
1.62369e-06
-4.23278e-08
1.6651e-06
-4.13952e-08
1.7056e-06
-4.04968e-08
1.74538e-06
-3.97709e-08
1.78441e-06
-3.90227e-08
1.82257e-06
-3.81508e-08
1.85967e-06
-3.70836e-08
1.89567e-06
-3.59909e-08
1.93075e-06
-3.50644e-08
1.96505e-06
-3.42923e-08
1.9985e-06
-3.34371e-08
2.03089e-06
-3.23871e-08
2.06221e-06
-3.13099e-08
2.09252e-06
-3.02989e-08
2.1218e-06
-2.9282e-08
2.14993e-06
-2.81239e-08
2.17687e-06
-2.69354e-08
2.20288e-06
-2.60036e-08
2.22807e-06
-2.51884e-08
2.25246e-06
-2.43818e-08
2.27587e-06
-2.33992e-08
2.29825e-06
-2.23789e-08
2.31959e-06
-2.13361e-08
2.33983e-06
-2.02366e-08
2.35919e-06
-1.93601e-08
2.3778e-06
-1.86066e-08
2.39554e-06
-1.77345e-08
2.41204e-06
-1.64991e-08
2.42762e-06
-1.55797e-08
2.44247e-06
-1.48443e-08
2.45648e-06
-1.40037e-08
2.46947e-06
-1.29871e-08
2.48164e-06
-1.21663e-08
2.49287e-06
-1.12344e-08
2.50302e-06
-1.0144e-08
2.51214e-06
-9.13185e-09
2.52044e-06
-8.29513e-09
2.52808e-06
-7.64779e-09
2.53513e-06
-7.05631e-09
2.54143e-06
-6.30087e-09
2.54679e-06
-5.36242e-09
2.55178e-06
-4.98192e-09
2.55568e-06
-3.90353e-09
2.55992e-06
-4.24139e-09
2.56356e-06
-3.63223e-09
2.56742e-06
-3.86058e-09
2.57054e-06
-3.11449e-09
2.57308e-06
-2.54024e-09
2.57502e-06
-1.93632e-09
2.5755e-06
-4.80948e-10
2.57699e-06
-1.49105e-09
2.57768e-06
-6.8845e-10
2.5763e-06
1.37867e-09
2.57492e-06
1.37833e-09
2.56931e-06
5.61048e-09
2.55989e-06
9.42127e-09
2.55862e-06
1.26946e-09
2.55562e-06
2.99982e-09
2.54955e-06
6.06302e-09
2.55008e-06
-5.24805e-10
2.51855e-06
3.15247e-08
2.47616e-06
4.24005e-08
2.48103e-06
-4.87337e-09
2.46207e-06
1.89594e-08
2.48281e-06
-2.07401e-08
2.54423e-06
-6.14184e-08
2.73005e-06
-1.85818e-07
2.9596e-06
-2.29549e-07
3.09268e-06
-1.33078e-07
3.19401e-06
-1.01322e-07
3.25121e-06
-5.71987e-08
3.29124e-06
-4.00275e-08
3.3152e-06
-2.39655e-08
3.33793e-06
-2.272e-08
3.35559e-06
-1.7666e-08
3.36993e-06
-1.43363e-08
3.37409e-06
-4.16478e-09
3.38219e-06
-8.09613e-09
3.35415e-06
2.80447e-08
3.31436e-06
3.979e-08
3.31823e-06
-3.87331e-09
3.30042e-06
1.78043e-08
3.31667e-06
-1.62442e-08
3.37301e-06
-5.63443e-08
3.53664e-06
-1.63629e-07
3.73147e-06
-1.94835e-07
3.83736e-06
-1.05891e-07
3.92137e-06
-8.40097e-08
3.96416e-06
-4.27886e-08
3.99609e-06
-3.19284e-08
4.01524e-06
-1.91503e-08
4.02495e-06
-9.71726e-09
4.02409e-06
8.58402e-10
4.00818e-06
1.59128e-08
3.98876e-06
1.94226e-08
3.97421e-06
1.45498e-08
3.95186e-06
2.23446e-08
3.94029e-06
1.15726e-08
3.91008e-06
3.02075e-08
3.78242e-06
1.27657e-07
3.66688e-06
1.15542e-07
3.62294e-06
4.39387e-08
3.54771e-06
7.52205e-08
3.71879e-06
-1.71074e-07
4.0196e-06
-3.00817e-07
4.91002e-06
-8.9042e-07
6.02087e-06
-1.11086e-06
6.81948e-06
-7.98606e-07
7.36089e-06
-5.41416e-07
7.74354e-06
-3.82658e-07
8.0219e-06
-2.78362e-07
8.23041e-06
-2.08508e-07
8.39152e-06
-1.61112e-07
8.51531e-06
-1.23798e-07
8.61316e-06
-9.78591e-08
8.69181e-06
-7.86465e-08
8.75654e-06
-6.4737e-08
8.80688e-06
-5.03476e-08
8.84704e-06
-4.01569e-08
8.88039e-06
-3.33545e-08
8.90492e-06
-2.45385e-08
8.92329e-06
-1.83696e-08
8.93786e-06
-1.45723e-08
8.94573e-06
-7.8737e-09
8.94949e-06
-3.77045e-09
8.95039e-06
-8.99447e-10
8.94955e-06
8.36557e-10
8.94323e-06
6.3154e-09
8.93359e-06
9.63714e-09
8.92193e-06
1.16586e-08
8.90839e-06
1.35267e-08
8.89304e-06
1.53514e-08
8.87573e-06
1.7301e-08
8.8566e-06
1.91326e-08
8.83586e-06
2.07387e-08
8.81323e-06
2.26235e-08
8.78898e-06
2.42455e-08
8.7626e-06
2.63754e-08
8.73833e-06
2.42614e-08
8.71387e-06
2.44554e-08
8.68825e-06
2.56216e-08
8.66156e-06
2.66786e-08
8.63366e-06
2.79036e-08
8.60435e-06
2.92998e-08
8.57427e-06
3.00735e-08
8.54343e-06
3.08386e-08
8.51164e-06
3.17889e-08
8.4789e-06
3.27289e-08
8.44532e-06
3.35832e-08
8.41123e-06
3.40826e-08
8.37757e-06
3.36547e-08
8.34004e-06
3.753e-08
8.30137e-06
3.86674e-08
8.26268e-06
3.86827e-08
8.22389e-06
3.87848e-08
8.18487e-06
3.90117e-08
8.14597e-06
3.89043e-08
8.10691e-06
3.90467e-08
8.06753e-06
3.93788e-08
8.02759e-06
3.99383e-08
7.98688e-06
4.07043e-08
7.94546e-06
4.14135e-08
7.90364e-06
4.18181e-08
7.86182e-06
4.18133e-08
7.82015e-06
4.16718e-08
7.77816e-06
4.19787e-08
7.73534e-06
4.28147e-08
7.69142e-06
4.39177e-08
7.64673e-06
4.46822e-08
7.60231e-06
4.44208e-08
7.55844e-06
4.38646e-08
7.5144e-06
4.40308e-08
7.46921e-06
4.51922e-08
7.42316e-06
4.60431e-08
7.3777e-06
4.54582e-08
7.3329e-06
4.47988e-08
7.28768e-06
4.52162e-08
7.24096e-06
4.67114e-08
7.1977e-06
4.32589e-08
7.1557e-06
4.1994e-08
7.11433e-06
4.13607e-08
7.06867e-06
4.56596e-08
7.02141e-06
4.72551e-08
6.97465e-06
4.67529e-08
6.92661e-06
4.80348e-08
6.87786e-06
4.87428e-08
5.25831e-08
-0.000102543
-6.74576e-07
-0.000101929
-1.06434e-06
-0.000101345
-8.72102e-07
-0.000100836
-3.70959e-07
-0.000100416
1.60077e-07
-9.99209e-05
4.22696e-07
-9.92141e-05
1.45517e-07
-9.79064e-05
-9.64996e-07
-9.56319e-05
-3.43565e-06
-9.2014e-05
-7.06919e-06
-8.7491e-05
-1.06618e-05
-8.30349e-05
-1.22544e-05
-7.87307e-05
-1.21281e-05
-7.44176e-05
-1.18335e-05
-7.05948e-05
-1.19268e-05
-6.73698e-05
-1.1524e-05
-6.45355e-05
-1.0882e-05
-6.2176e-05
-9.55784e-06
-6.0102e-05
-8.00127e-06
-5.87368e-05
-5.49775e-06
-5.88617e-05
-1.85591e-06
-6.01476e-05
1.67619e-06
-6.08417e-05
3.97424e-06
-5.97478e-05
5.41791e-06
-5.7678e-05
5.52574e-06
-5.63903e-05
4.18035e-06
-5.60153e-05
2.34748e-06
-5.58718e-05
1.20926e-06
-5.56154e-05
4.98497e-07
-5.52117e-05
-2.26849e-07
-5.47063e-05
-9.48564e-07
-5.41475e-05
-1.55775e-06
-5.33484e-05
-2.0654e-06
-5.22841e-05
-2.34025e-06
-5.10259e-05
-2.31549e-06
-4.98018e-05
-2.00498e-06
-4.87973e-05
-1.82132e-06
-4.80011e-05
-1.82822e-06
-4.71569e-05
-1.97686e-06
-4.62211e-05
-1.88092e-06
-4.5082e-05
-1.79103e-06
-4.38004e-05
-2.09591e-06
-4.2452e-05
-2.68373e-06
-4.09929e-05
-3.29917e-06
-3.94237e-05
-3.47604e-06
-3.78677e-05
-3.19001e-06
-3.64174e-05
-2.53633e-06
-3.51278e-05
-1.99225e-06
-3.39096e-05
-2.12233e-06
-3.25674e-05
-2.70761e-06
-3.10428e-05
-3.30138e-06
-2.94402e-05
-3.40631e-06
-2.78677e-05
-3.09131e-06
-2.64302e-05
-2.62503e-06
-2.51976e-05
-2.33643e-06
-2.40648e-05
-2.41635e-06
-2.28793e-05
-2.61419e-06
-2.15851e-05
-2.78804e-06
-2.01513e-05
-2.91826e-06
-1.85923e-05
-3.05913e-06
-1.69935e-05
-3.35792e-06
-1.54231e-05
-3.54821e-06
-1.3936e-05
-3.34166e-06
-1.26233e-05
-2.74908e-06
-1.13523e-05
-2.1969e-06
-1.00236e-05
-2.16791e-06
-8.59088e-06
-2.50828e-06
-7.31863e-06
-2.49373e-06
-6.27897e-06
-2.02484e-06
-5.38049e-06
-1.67619e-06
-4.54215e-06
-1.61395e-06
-3.67704e-06
-1.90352e-06
-2.66456e-06
-2.32561e-06
-1.50619e-06
-2.73015e-06
-2.59252e-07
-2.95641e-06
7.06995e-07
-2.75592e-06
1.33063e-06
-2.26741e-06
1.79837e-06
-1.73823e-06
2.30925e-06
-2.04226e-06
3.56399e-06
-2.21387e-06
4.87149e-06
-1.98713e-06
6.64692e-06
-1.84218e-06
7.79928e-06
-1.22921e-06
8.82148e-06
-8.6958e-07
9.23993e-06
2.39774e-07
9.55705e-06
7.83767e-07
9.52774e-06
1.50391e-06
8.77458e-06
2.13582e-06
7.43057e-06
2.42337e-06
5.7217e-06
2.45186e-06
4.0916e-06
2.01028e-06
2.91418e-06
1.25975e-06
2.15944e-06
8.78475e-07
1.77809e-06
5.66895e-07
1.63725e-06
5.2612e-07
1.4297e-06
7.22144e-07
1.31978e-06
1.13717e-06
1.09366e-06
1.56567e-06
1.34658e-06
2.27687e-06
9.66518e-07
3.66784e-06
-6.18668e-07
4.47674e-06
-3.4521e-06
4.58345e-06
-7.06077e-06
3.95693e-06
-1.01553e-05
3.20261e-06
-1.24377e-05
1.72322e-06
-1.34497e-05
4.03851e-07
-1.35984e-05
7.3774e-08
-1.34381e-05
1.42013e-07
-1.26268e-05
-6.80873e-07
-1.16885e-05
-1.17943e-06
-1.14069e-05
-4.8789e-07
-1.1233e-05
-5.93224e-07
-1.09298e-05
-8.16487e-07
-1.0742e-05
-5.86405e-07
-1.03752e-05
-6.34919e-07
-9.8861e-06
-6.87793e-07
-9.4374e-06
-3.90089e-07
-9.13246e-06
-1.28456e-07
-8.9123e-06
-2.08437e-07
-9.00524e-06
-9.64014e-08
-9.27664e-06
-1.907e-08
-9.34246e-06
-1.88099e-07
-9.2166e-06
-5.13475e-07
-8.96935e-06
-6.67695e-07
-8.679e-06
-6.24722e-07
-8.22766e-06
-7.98958e-07
-7.75692e-06
-8.27036e-07
-7.3798e-06
-7.18838e-07
-6.99603e-06
-7.7465e-07
-6.60612e-06
-8.20037e-07
-6.2288e-06
-7.96657e-07
-5.80896e-06
-8.47032e-07
-5.37373e-06
-8.55592e-07
-4.93155e-06
-8.84521e-07
-4.48857e-06
-8.8976e-07
-4.03236e-06
-9.1033e-07
-3.55834e-06
-9.46838e-07
-3.0861e-06
-9.49712e-07
-2.60886e-06
-9.62435e-07
-2.13239e-06
-9.59184e-07
-1.65654e-06
-9.5761e-07
-1.1788e-06
-9.52712e-07
-7.04802e-07
-9.4477e-07
-2.34905e-07
-9.40667e-07
2.26945e-07
-9.25149e-07
6.79074e-07
-8.96648e-07
1.12515e-06
-8.82633e-07
1.569e-06
-8.78483e-07
2.00993e-06
-8.7737e-07
2.44436e-06
-8.72077e-07
2.86811e-06
-8.53099e-07
3.28676e-06
-8.32963e-07
3.70244e-06
-8.2205e-07
4.11795e-06
-8.24356e-07
4.53168e-06
-8.25227e-07
4.93756e-06
-8.14309e-07
5.33446e-06
-7.98145e-07
5.72841e-06
-7.88091e-07
6.1237e-06
-7.84114e-07
6.51682e-06
-7.7823e-07
6.90128e-06
-7.6438e-07
7.27658e-06
-7.50876e-07
7.64692e-06
-7.42018e-07
8.01463e-06
-7.35537e-07
8.3752e-06
-7.20262e-07
8.72622e-06
-6.99114e-07
9.07115e-06
-6.87636e-07
9.41192e-06
-6.8072e-07
9.74367e-06
-6.62784e-07
1.00631e-05
-6.36585e-07
1.03742e-05
-6.19762e-07
1.06795e-05
-6.10081e-07
1.0977e-05
-5.95218e-07
1.12621e-05
-5.70345e-07
1.15355e-05
-5.43469e-07
1.17988e-05
-5.2378e-07
1.2053e-05
-5.09193e-07
1.22969e-05
-4.89421e-07
1.25289e-05
-4.63437e-07
1.27501e-05
-4.38594e-07
1.29597e-05
-4.16533e-07
1.31547e-05
-3.91274e-07
1.3335e-05
-3.60178e-07
1.35017e-05
-3.3076e-07
1.36562e-05
-3.08595e-07
1.37995e-05
-2.88631e-07
1.39299e-05
-2.61267e-07
1.40459e-05
-2.28853e-07
1.41446e-05
-1.94375e-07
1.42247e-05
-1.60602e-07
1.42889e-05
-1.31622e-07
1.43396e-05
-1.04912e-07
1.43771e-05
-7.63602e-08
1.44e-05
-4.23414e-08
1.44057e-05
-7.33635e-09
1.43918e-05
2.93398e-08
1.43598e-05
6.21973e-08
1.43139e-05
8.86181e-08
1.42548e-05
1.15338e-07
1.41789e-05
1.49517e-07
1.40837e-05
1.90434e-07
1.39721e-05
2.25822e-07
1.38468e-05
2.53985e-07
1.37071e-05
2.78865e-07
1.3552e-05
3.06569e-07
1.33802e-05
3.39772e-07
1.31931e-05
3.72477e-07
1.29939e-05
4.00727e-07
1.27834e-05
4.22811e-07
1.25599e-05
4.4452e-07
1.23208e-05
4.73589e-07
1.20677e-05
5.05855e-07
1.18065e-05
5.2608e-07
1.15384e-05
5.37062e-07
1.12614e-05
5.4976e-07
1.0976e-05
5.66596e-07
1.06808e-05
5.91007e-07
1.0376e-05
6.13997e-07
1.00635e-05
6.27518e-07
9.74806e-06
6.2933e-07
9.43171e-06
6.28607e-07
9.1121e-06
6.34594e-07
8.78857e-06
6.4588e-07
8.46084e-06
6.59386e-07
8.13015e-06
6.64795e-07
7.7987e-06
6.63126e-07
7.46893e-06
6.58055e-07
7.14091e-06
6.51883e-07
6.8147e-06
6.48266e-07
6.48977e-06
6.50991e-07
6.16487e-06
6.53347e-07
5.84228e-06
6.46407e-07
5.52468e-06
6.35085e-07
5.21286e-06
6.2393e-07
4.90662e-06
6.11954e-07
4.60426e-06
6.04039e-07
4.30403e-06
6.00177e-07
4.00562e-06
5.95073e-07
3.71257e-06
5.83231e-07
3.42687e-06
5.69996e-07
3.14879e-06
5.58723e-07
2.8784e-06
5.45472e-07
2.61284e-06
5.3178e-07
2.35218e-06
5.17864e-07
2.09761e-06
5.05662e-07
1.84869e-06
4.96215e-07
1.6053e-06
4.90181e-07
1.36948e-06
4.75471e-07
1.14185e-06
4.53607e-07
9.20999e-07
4.39585e-07
7.05284e-07
4.29411e-07
4.94624e-07
4.19974e-07
2.91654e-07
4.07641e-07
9.73236e-08
3.91488e-07
-9.00674e-08
3.76528e-07
-2.72134e-07
3.64009e-07
-4.48997e-07
3.51567e-07
-6.21125e-07
3.41201e-07
-7.8691e-07
3.29844e-07
-9.43213e-07
3.14365e-07
-1.09194e-06
2.99603e-07
-1.23511e-06
2.85777e-07
-1.37285e-06
2.73623e-07
-1.50595e-06
2.64854e-07
-1.63448e-06
2.5717e-07
-1.75712e-06
2.47201e-07
-1.8728e-06
2.33404e-07
-1.98111e-06
2.15899e-07
-2.08339e-06
2.03108e-07
-2.18067e-06
1.93232e-07
-2.27338e-06
1.84233e-07
-2.36096e-06
1.76076e-07
-2.44283e-06
1.66412e-07
-2.51943e-06
1.54481e-07
-2.59123e-06
1.42898e-07
-2.65804e-06
1.32738e-07
-2.71912e-06
1.22023e-07
-2.77464e-06
1.11263e-07
-2.82488e-06
1.00533e-07
-2.87067e-06
9.12291e-08
-2.91316e-06
8.51991e-08
-2.95153e-06
7.85386e-08
-2.98454e-06
6.74585e-08
-3.01188e-06
5.50737e-08
-3.03487e-06
4.56047e-08
-3.05429e-06
3.80522e-08
-3.06974e-06
3.02389e-08
-3.08068e-06
2.2534e-08
-3.08739e-06
1.55843e-08
-3.09003e-06
7.33157e-09
-3.08849e-06
-2.32786e-09
-3.08319e-06
-1.10381e-08
-3.07423e-06
-1.87993e-08
-3.06101e-06
-2.66884e-08
-3.04348e-06
-3.32811e-08
-3.02184e-06
-4.05155e-08
-2.99647e-06
-4.95787e-08
-2.96841e-06
-5.64765e-08
-2.93663e-06
-6.44501e-08
-2.89944e-06
-7.45447e-08
-2.85721e-06
-8.22509e-08
-2.81107e-06
-8.96614e-08
-2.76212e-06
-9.76673e-08
-2.70979e-06
-1.05803e-07
-2.65165e-06
-1.16139e-07
-2.58819e-06
-1.24893e-07
-2.52108e-06
-1.32969e-07
-2.45059e-06
-1.41374e-07
-2.3756e-06
-1.51185e-07
-2.29577e-06
-1.60752e-07
-2.2117e-06
-1.67854e-07
-2.12386e-06
-1.74617e-07
-2.03333e-06
-1.81324e-07
-1.93933e-06
-1.89849e-07
-1.84118e-06
-1.98147e-07
-1.73967e-06
-2.03654e-07
-1.63584e-06
-2.07865e-07
-1.5308e-06
-2.11657e-07
-1.42504e-06
-2.14376e-07
-1.31808e-06
-2.16962e-07
-1.21006e-06
-2.1785e-07
-1.1018e-06
-2.1705e-07
-9.94439e-07
-2.15862e-07
-8.8887e-07
-2.13516e-07
-7.85734e-07
-2.09169e-07
-6.84813e-07
-2.03432e-07
-5.86184e-07
-1.97386e-07
-4.90343e-07
-1.91876e-07
-3.97808e-07
-1.85849e-07
-3.09107e-07
-1.78462e-07
-2.24074e-07
-1.7027e-07
-1.42498e-07
-1.61817e-07
-6.43359e-08
-1.54755e-07
1.08485e-08
-1.49295e-07
8.32752e-08
-1.44413e-07
1.53037e-07
-1.39427e-07
2.20532e-07
-1.34636e-07
2.86107e-07
-1.30215e-07
3.49727e-07
-1.25878e-07
4.11404e-07
-1.22388e-07
4.71371e-07
-1.19636e-07
5.3007e-07
-1.17339e-07
5.87615e-07
-1.1508e-07
6.43857e-07
-1.12141e-07
6.99313e-07
-1.09917e-07
7.5411e-07
-1.0868e-07
8.08055e-07
-1.07557e-07
8.61197e-07
-1.06335e-07
9.13578e-07
-1.04629e-07
9.65347e-07
-1.029e-07
1.01653e-06
-1.01506e-07
1.06711e-06
-1.00691e-07
1.11707e-06
-9.98537e-08
1.16647e-06
-9.83872e-08
1.21527e-06
-9.69208e-08
1.26332e-06
-9.5713e-08
1.31061e-06
-9.45466e-08
1.35735e-06
-9.33789e-08
1.40357e-06
-9.21506e-08
1.44918e-06
-9.09309e-08
1.49403e-06
-8.95336e-08
1.53807e-06
-8.80247e-08
1.58143e-06
-8.661e-08
1.62405e-06
-8.49336e-08
1.66588e-06
-8.32106e-08
1.70685e-06
-8.1455e-08
1.74689e-06
-7.97945e-08
1.78604e-06
-7.81518e-08
1.82423e-06
-7.63274e-08
1.86147e-06
-7.43033e-08
1.89773e-06
-7.22352e-08
1.933e-06
-7.03265e-08
1.96737e-06
-6.86456e-08
2.00084e-06
-6.68955e-08
2.0333e-06
-6.4835e-08
2.06468e-06
-6.26705e-08
2.09491e-06
-6.05214e-08
2.12417e-06
-5.85317e-08
2.15251e-06
-5.64542e-08
2.17986e-06
-5.42812e-08
2.20614e-06
-5.22668e-08
2.23134e-06
-5.03896e-08
2.25565e-06
-4.86859e-08
2.27898e-06
-4.67179e-08
2.30128e-06
-4.46761e-08
2.32257e-06
-4.26213e-08
2.34299e-06
-4.06462e-08
2.36249e-06
-3.88548e-08
2.38104e-06
-3.71505e-08
2.39858e-06
-3.52713e-08
2.41532e-06
-3.32318e-08
2.43115e-06
-3.14046e-08
2.44609e-06
-2.9779e-08
2.45984e-06
-2.77515e-08
2.47278e-06
-2.59197e-08
2.48475e-06
-2.41359e-08
2.49601e-06
-2.2499e-08
2.5063e-06
-2.0438e-08
2.51584e-06
-1.86747e-08
2.52401e-06
-1.64703e-08
2.53166e-06
-1.53049e-08
2.53824e-06
-1.36345e-08
2.54443e-06
-1.24932e-08
2.54959e-06
-1.05257e-08
2.55485e-06
-1.02424e-08
2.55844e-06
-7.4848e-09
2.56215e-06
-7.94663e-09
2.5643e-06
-5.77917e-09
2.56651e-06
-6.0684e-09
2.5701e-06
-6.70471e-09
2.57342e-06
-5.86258e-09
2.57841e-06
-6.91878e-09
2.57995e-06
-2.02294e-09
2.58175e-06
-3.28799e-09
2.57777e-06
3.28651e-09
2.57155e-06
7.59243e-09
2.57349e-06
-5.5548e-10
2.57783e-06
1.27161e-09
2.58029e-06
6.95598e-09
2.58262e-06
-1.0552e-09
2.54898e-06
3.66394e-08
2.50444e-06
5.06049e-08
2.51044e-06
-6.5319e-09
2.52584e-06
1.61255e-08
2.58856e-06
-2.03103e-08
2.66785e-06
-8.41631e-08
2.86567e-06
-1.78856e-07
3.09265e-06
-2.47717e-07
3.22145e-06
-1.90217e-07
3.27172e-06
-2.3608e-07
3.26122e-06
-2.19046e-07
3.27707e-06
-1.48932e-07
3.28589e-06
-1.10136e-07
3.31234e-06
-8.36454e-08
3.33405e-06
-6.17327e-08
3.3606e-06
-5.05189e-08
3.37905e-06
-4.11697e-08
3.3949e-06
-3.35181e-08
3.374e-06
6.56896e-09
3.34049e-06
2.93459e-08
3.35459e-06
-2.2201e-08
3.37642e-06
6.2167e-09
3.44145e-06
-2.52366e-08
3.51974e-06
-8.21689e-08
3.7005e-06
-1.62956e-07
3.89883e-06
-2.14569e-07
4.00236e-06
-1.59875e-07
4.03826e-06
-1.99531e-07
4.02207e-06
-1.78647e-07
4.03522e-06
-1.19046e-07
4.03585e-06
-8.46412e-08
4.04325e-06
-5.01913e-08
4.0293e-06
-1.79828e-08
4.02187e-06
-1.17158e-08
4.01951e-06
-7.36474e-09
4.02968e-06
-9.31694e-09
4.04201e-06
3.58468e-09
4.06319e-06
-1.75837e-09
4.05215e-06
2.55857e-08
3.92832e-06
1.46172e-07
3.8059e-06
1.33993e-07
3.77818e-06
5.79304e-08
3.82202e-06
8.38093e-08
4.12975e-06
-1.92188e-07
4.57208e-06
-3.98396e-07
5.58464e-06
-9.37339e-07
6.61251e-06
-1.19895e-06
7.35692e-06
-1.04524e-06
7.68105e-06
-1.21455e-06
7.72277e-06
-1.15259e-06
7.84664e-06
-9.22487e-07
7.99029e-06
-6.85065e-07
8.13387e-06
-5.26246e-07
8.26749e-06
-4.11986e-07
8.3877e-06
-3.28726e-07
8.49324e-06
-2.66664e-07
8.58357e-06
-2.14137e-07
8.65983e-06
-1.74127e-07
8.72521e-06
-1.44032e-07
8.77928e-06
-1.18808e-07
8.82353e-06
-9.46062e-08
8.85975e-06
-7.63846e-08
8.88908e-06
-6.26941e-08
8.91196e-06
-4.74278e-08
8.92939e-06
-3.58047e-08
8.94223e-06
-2.7414e-08
8.95055e-06
-1.62084e-08
8.95513e-06
-8.35171e-09
8.95631e-06
-2.08924e-09
8.95433e-06
2.81194e-09
8.94888e-06
1.17542e-08
8.94053e-06
1.79832e-08
8.92983e-06
2.23522e-08
8.91664e-06
2.67128e-08
8.90113e-06
3.08479e-08
8.884e-06
3.44285e-08
8.86507e-06
3.80551e-08
8.84436e-06
4.14362e-08
8.82209e-06
4.48857e-08
8.79845e-06
4.78825e-08
8.77362e-06
5.12012e-08
8.74803e-06
4.9841e-08
8.72142e-06
5.10583e-08
8.69398e-06
5.30549e-08
8.66551e-06
5.5137e-08
8.63624e-06
5.71642e-08
8.60654e-06
5.89916e-08
8.5756e-06
6.10085e-08
8.54393e-06
6.25015e-08
8.51146e-06
6.42462e-08
8.47802e-06
6.61693e-08
8.44345e-06
6.81396e-08
8.40843e-06
6.90986e-08
8.37246e-06
6.9618e-08
8.33554e-06
7.44418e-08
8.29829e-06
7.59118e-08
8.26041e-06
7.65465e-08
8.22204e-06
7.7147e-08
8.18331e-06
7.77354e-08
8.14403e-06
7.81759e-08
8.10446e-06
7.86095e-08
8.06462e-06
7.92111e-08
8.02437e-06
8.01833e-08
7.98355e-06
8.15144e-08
7.94216e-06
8.27994e-08
7.90039e-06
8.3576e-08
7.85843e-06
8.37673e-08
7.81617e-06
8.39257e-08
7.77344e-06
8.4698e-08
7.72975e-06
8.65017e-08
7.68543e-06
8.82229e-08
7.64145e-06
8.86545e-08
7.59779e-06
8.80728e-08
7.55369e-06
8.79538e-08
7.50862e-06
8.90995e-08
7.46321e-06
9.05974e-08
7.41827e-06
9.09708e-08
7.37394e-06
8.97799e-08
7.32887e-06
8.98646e-08
7.28305e-06
9.10239e-08
7.23729e-06
9.24652e-08
7.19238e-06
8.81633e-08
7.14758e-06
8.67918e-08
7.10158e-06
8.73466e-08
7.05493e-06
9.23083e-08
7.00866e-06
9.35156e-08
6.96284e-06
9.2556e-08
6.91794e-06
9.29328e-08
6.87206e-06
9.46109e-08
9.9365e-08
-0.000102389
-1.41852e-06
-0.000101648
-1.80636e-06
-0.000100884
-1.63687e-06
-0.000100004
-1.25212e-06
-9.89555e-05
-8.88449e-07
-9.77875e-05
-7.45629e-07
-9.64334e-05
-1.20876e-06
-9.47521e-05
-2.64651e-06
-9.27147e-05
-5.47316e-06
-9.02672e-05
-9.51685e-06
-8.767e-05
-1.32591e-05
-8.5231e-05
-1.46935e-05
-8.25993e-05
-1.47598e-05
-8.00793e-05
-1.43536e-05
-7.85692e-05
-1.3437e-05
-7.82605e-05
-1.18326e-05
-7.91181e-05
-1.00244e-05
-8.01778e-05
-8.49811e-06
-8.08682e-05
-7.31092e-06
-8.08869e-05
-5.47899e-06
-7.94838e-05
-3.259e-06
-7.66236e-05
-1.18399e-06
-7.34467e-05
7.97331e-07
-7.02114e-05
2.18272e-06
-6.69644e-05
2.27873e-06
-6.4226e-05
1.44202e-06
-6.22572e-05
3.78634e-07
-6.06442e-05
-4.03683e-07
-5.91784e-05
-9.67267e-07
-5.79346e-05
-1.47058e-06
-5.69469e-05
-1.93621e-06
-5.61114e-05
-2.39326e-06
-5.51718e-05
-3.00488e-06
-5.39554e-05
-3.55664e-06
-5.25046e-05
-3.76622e-06
-5.1016e-05
-3.49352e-06
-4.97662e-05
-3.07111e-06
-4.88173e-05
-2.77703e-06
-4.79577e-05
-2.83635e-06
-4.68209e-05
-3.01766e-06
-4.53213e-05
-3.29058e-06
-4.3712e-05
-3.70516e-06
-4.22288e-05
-4.1669e-06
-4.09508e-05
-4.57705e-06
-3.96631e-05
-4.76372e-06
-3.82722e-05
-4.58078e-06
-3.67078e-05
-4.1007e-06
-3.5008e-05
-3.69201e-06
-3.33831e-05
-3.74714e-06
-3.18729e-05
-4.21775e-06
-3.05262e-05
-4.64802e-06
-2.91846e-05
-4.74791e-06
-2.77665e-05
-4.50933e-06
-2.62997e-05
-4.09178e-06
-2.49391e-05
-3.69701e-06
-2.37435e-05
-3.61184e-06
-2.26075e-05
-3.75012e-06
-2.141e-05
-3.98547e-06
-2.01361e-05
-4.1921e-06
-1.8768e-05
-4.42715e-06
-1.7381e-05
-4.74489e-06
-1.60465e-05
-4.88257e-06
-1.47778e-05
-4.61029e-06
-1.35295e-05
-3.9973e-06
-1.19881e-05
-3.73827e-06
-1.01979e-05
-3.95797e-06
-8.49492e-06
-4.21118e-06
-7.10126e-06
-3.88729e-06
-5.89903e-06
-3.22697e-06
-4.82415e-06
-2.75097e-06
-3.86037e-06
-2.57761e-06
-3.0237e-06
-2.74009e-06
-2.1414e-06
-3.2078e-06
-1.19525e-06