/*--------------------------------*- C++ -*----------------------------------*\
| =========                 |                                                 |
| \\      /  F ield         | OpenFOAM: The Open Source CFD Toolbox           |
|  \\    /   O peration     | Version:  v2006                                 |
|   \\  /    A nd           | Website:  www.openfoam.com                      |
|    \\/     M anipulation  |                                                 |
\*---------------------------------------------------------------------------*/
FoamFile
{
    version     2.0;
    format      ascii;
    class       volVectorField;
    location    "5.5";
    object      U;
}
// * * * * * * * * * * * * * * * * * * * * * * * * * * * * * * * * * * * * * //

dimensions      [0 1 -1 0 0 0 0];


internalField   nonuniform List<vector> 
33000
(
(-0.231618 0 -0.000198815)
(-0.263958 0 -0.000700599)
(-0.254339 0 -0.00026966)
(-0.255037 0 0.00077312)
(-0.255375 0 0.00199685)
(-0.257762 0 0.00349419)
(-0.260172 0 0.00329534)
(-0.262317 0 0.00236612)
(-0.262002 0 -0.00129408)
(-0.256801 0 -0.00717704)
(-0.244219 0 -0.0154348)
(-0.224711 0 -0.0216742)
(-0.204556 0 -0.0224649)
(-0.186597 0 -0.0205264)
(-0.167186 0 -0.0217151)
(-0.1461 0 -0.0231413)
(-0.126182 0 -0.0229285)
(-0.106898 0 -0.0220535)
(-0.0904313 0 -0.0202284)
(-0.0774131 0 -0.0187529)
(-0.0696877 0 -0.0184888)
(-0.0669543 0 -0.0146885)
(-0.0702225 0 -0.00143313)
(-0.0826563 0 0.0191993)
(-0.102895 0 0.028303)
(-0.122012 0 0.019435)
(-0.131286 0 0.00893112)
(-0.135307 0 0.00426759)
(-0.137726 0 0.0022973)
(-0.138855 0 0.000793479)
(-0.138502 0 -0.00087862)
(-0.136423 0 -0.00247491)
(-0.133518 0 -0.00287071)
(-0.130262 0 -0.00248101)
(-0.127227 0 -0.00159363)
(-0.12498 0 -0.000895544)
(-0.123189 0 -0.00136215)
(-0.12089 0 -0.00212998)
(-0.118057 0 -0.00227725)
(-0.115288 0 -0.00164663)
(-0.113387 0 -0.000653247)
(-0.11184 0 -0.00104933)
(-0.109211 0 -0.00263359)
(-0.105099 0 -0.00390666)
(-0.100272 0 -0.00388095)
(-0.0956342 0 -0.00300172)
(-0.0921479 0 -0.00153475)
(-0.0902547 0 -0.000744732)
(-0.0884256 0 -0.00148833)
(-0.0856021 0 -0.0026939)
(-0.0815471 0 -0.00362552)
(-0.0768652 0 -0.00350253)
(-0.0726556 0 -0.00270181)
(-0.0693868 0 -0.00197726)
(-0.066665 0 -0.00196597)
(-0.063674 0 -0.00257701)
(-0.0602266 0 -0.00292451)
(-0.0565798 0 -0.00302452)
(-0.0527805 0 -0.00280937)
(-0.049187 0 -0.00266706)
(-0.0452429 0 -0.00344135)
(-0.0403962 0 -0.00421842)
(-0.0354083 0 -0.00384655)
(-0.0311635 0 -0.00266724)
(-0.0282884 0 -0.0013255)
(-0.0263082 0 -0.00108691)
(-0.024054 0 -0.00172977)
(-0.0209865 0 -0.00226181)
(-0.018129 0 -0.0017686)
(-0.015961 0 -0.00132768)
(-0.0141677 0 -0.00140023)
(-0.0120308 0 -0.00211182)
(-0.0089005 0 -0.00258023)
(-0.00568406 0 -0.00328122)
(-0.000789028 0 -0.00296486)
(0.00222846 0 -0.00352481)
(0.00972877 0 -0.00247464)
(0.00851625 0 -0.00274281)
(0.0163293 0 -0.00160121)
(0.0172273 0 9.12356e-05)
(0.0203716 0 -1.24467e-05)
(0.0209106 0 0.00173857)
(0.0207161 0 0.00109881)
(0.021226 0 0.00213211)
(0.0199515 0 0.00333046)
(0.0180395 0 0.00447817)
(0.0143279 0 0.00455187)
(0.0107455 0 0.00129771)
(0.00736288 0 -0.000523348)
(0.00537486 0 -0.000982339)
(0.00364739 0 -0.00057201)
(0.00345892 0 -0.000281279)
(0.00327082 0 0.000390411)
(0.00280389 0 0.000917944)
(0.00237141 0 0.00164769)
(0.000865519 0 0.00186271)
(-0.000208396 0 0.00370409)
(-0.00422324 0 0.00434214)
(-0.00700474 0 0.0105193)
(-0.0167579 0 0.00967633)
(-0.02352 0 0.00323144)
(-0.0312698 0 -0.005364)
(-0.0320735 0 -0.00744674)
(-0.0331835 0 -0.00124294)
(-0.0325242 0 0.00257986)
(-0.0304154 0 0.00336394)
(-0.0295166 0 0.00164397)
(-0.0299957 0 0.000422326)
(-0.0310566 0 -0.00231688)
(-0.0305992 0 -0.00286536)
(-0.0299125 0 -0.00248149)
(-0.0295038 0 -0.00146027)
(-0.0278744 0 -0.000985305)
(-0.0268777 0 -0.000397816)
(-0.0259669 0 -0.000202096)
(-0.0253928 0 0.000105012)
(-0.0252051 0 0.000573713)
(-0.0255336 0 0.000523532)
(-0.0259853 0 -0.000431052)
(-0.0257679 0 -0.00146039)
(-0.024946 0 -0.00176419)
(-0.0243582 0 -0.000795195)
(-0.023655 0 -0.00048738)
(-0.0224306 0 -0.000111461)
(-0.021547 0 -0.000400057)
(-0.0207607 0 -0.000624855)
(-0.0198095 0 -0.00102751)
(-0.0189784 0 -0.000836086)
(-0.0181037 0 -0.000893149)
(-0.0170173 0 -0.000690763)
(-0.0159637 0 -0.000735884)
(-0.0149108 0 -0.000677839)
(-0.0138374 0 -0.000821606)
(-0.0127998 0 -0.000816609)
(-0.0116335 0 -0.000872978)
(-0.0105613 0 -0.000802993)
(-0.00936586 0 -0.000825637)
(-0.00819551 0 -0.000818229)
(-0.00697975 0 -0.000846861)
(-0.00576955 0 -0.000870489)
(-0.00456544 0 -0.00088519)
(-0.00336249 0 -0.000889525)
(-0.00218861 0 -0.000881467)
(-0.00101045 0 -0.000896533)
(0.000168304 0 -0.000881047)
(0.00130315 0 -0.000845813)
(0.00239426 0 -0.000832071)
(0.00348409 0 -0.000837981)
(0.00456932 0 -0.000846708)
(0.00566605 0 -0.000856997)
(0.00675785 0 -0.000843398)
(0.00781289 0 -0.000806736)
(0.00882995 0 -0.00078865)
(0.00984605 0 -0.000799693)
(0.0108746 0 -0.000807826)
(0.0119039 0 -0.000805911)
(0.0129168 0 -0.000794622)
(0.013911 0 -0.000777203)
(0.0148874 0 -0.000760571)
(0.0158561 0 -0.000753205)
(0.0168126 0 -0.000747547)
(0.0177563 0 -0.000743429)
(0.0186903 0 -0.000735368)
(0.0196147 0 -0.000725783)
(0.0205293 0 -0.000708646)
(0.0214121 0 -0.00068454)
(0.0222705 0 -0.000673888)
(0.0231253 0 -0.000668775)
(0.0239697 0 -0.000651263)
(0.0247794 0 -0.000622696)
(0.0255557 0 -0.000605685)
(0.0263231 0 -0.00059849)
(0.0270789 0 -0.000585317)
(0.0278112 0 -0.000560878)
(0.0285039 0 -0.000528286)
(0.0291618 0 -0.000509617)
(0.0298068 0 -0.00050083)
(0.0304362 0 -0.000482402)
(0.0310336 0 -0.000454879)
(0.0315934 0 -0.000423999)
(0.0321211 0 -0.000403357)
(0.032628 0 -0.000386014)
(0.0331017 0 -0.000351958)
(0.0335281 0 -0.000319344)
(0.033922 0 -0.000302738)
(0.0342991 0 -0.000286736)
(0.0346482 0 -0.000255822)
(0.0349535 0 -0.000217336)
(0.0352128 0 -0.000185329)
(0.0354317 0 -0.000159667)
(0.035616 0 -0.000135076)
(0.0357682 0 -0.000108027)
(0.035888 0 -7.40499e-05)
(0.035961 0 -3.32456e-05)
(0.0359862 0 4.94117e-07)
(0.035969 0 3.04603e-05)
(0.0359095 0 5.66966e-05)
(0.0358181 0 8.11343e-05)
(0.0356957 0 0.000108804)
(0.0355373 0 0.000144265)
(0.0353265 0 0.000188542)
(0.0350618 0 0.000227052)
(0.0347557 0 0.000256191)
(0.0344189 0 0.000273231)
(0.0340595 0 0.000294676)
(0.0336615 0 0.000327022)
(0.0332199 0 0.000362798)
(0.0327343 0 0.000397579)
(0.0322133 0 0.000419226)
(0.0316728 0 0.000432735)
(0.0311079 0 0.000456945)
(0.0304998 0 0.000496619)
(0.029845 0 0.000525013)
(0.0291757 0 0.000529024)
(0.0285 0 0.000531989)
(0.0278119 0 0.000548911)
(0.0270937 0 0.000583778)
(0.0263327 0 0.000612344)
(0.0255481 0 0.000620919)
(0.0247579 0 0.000614329)
(0.0239784 0 0.000609999)
(0.0231961 0 0.000615251)
(0.0224033 0 0.000632537)
(0.0215837 0 0.000655332)
(0.0207456 0 0.000660209)
(0.0199126 0 0.000651476)
(0.019087 0 0.000643765)
(0.0182709 0 0.000633247)
(0.0174673 0 0.000629222)
(0.0166598 0 0.000641853)
(0.0158367 0 0.00064859)
(0.0150173 0 0.00063747)
(0.0142171 0 0.00062368)
(0.0134291 0 0.000613052)
(0.0126561 0 0.000600727)
(0.0118997 0 0.000594145)
(0.011147 0 0.000591053)
(0.0103993 0 0.000581203)
(0.00966301 0 0.000567109)
(0.00894765 0 0.000556162)
(0.00824066 0 0.000552981)
(0.00754374 0 0.000545438)
(0.00686455 0 0.000523647)
(0.00621194 0 0.000503167)
(0.00557766 0 0.000491716)
(0.00495598 0 0.000485131)
(0.00434043 0 0.000487918)
(0.00372177 0 0.000473686)
(0.00314224 0 0.000442267)
(0.00259098 0 0.000428396)
(0.00204884 0 0.000419114)
(0.00152206 0 0.00041038)
(0.00100249 0 0.000403102)
(0.000498614 0 0.00039001)
(1.68084e-05 0 0.000373121)
(-0.00044722 0 0.000356928)
(-0.000892688 0 0.000341884)
(-0.00132089 0 0.000329797)
(-0.00173811 0 0.000320846)
(-0.00214121 0 0.000312644)
(-0.00252878 0 0.000298809)
(-0.00289559 0 0.000279982)
(-0.00324238 0 0.000265657)
(-0.00357521 0 0.000257357)
(-0.00390169 0 0.000252209)
(-0.00421841 0 0.000246581)
(-0.00452496 0 0.000233553)
(-0.00480673 0 0.000210785)
(-0.0050636 0 0.000196789)
(-0.00531068 0 0.000187554)
(-0.00554363 0 0.000179343)
(-0.00576838 0 0.000175114)
(-0.00598631 0 0.000168228)
(-0.00619117 0 0.000153177)
(-0.00637602 0 0.000138572)
(-0.00654701 0 0.000129123)
(-0.00670598 0 0.000120337)
(-0.00685212 0 0.000110029)
(-0.00698509 0 9.88024e-05)
(-0.00710402 0 8.90276e-05)
(-0.00721274 0 8.41736e-05)
(-0.007318 0 8.03165e-05)
(-0.00741372 0 6.84253e-05)
(-0.00749068 0 5.44139e-05)
(-0.00755269 0 4.41442e-05)
(-0.00760411 0 3.61901e-05)
(-0.00764605 0 2.88618e-05)
(-0.00767837 0 2.33388e-05)
(-0.00770429 0 1.89859e-05)
(-0.00772292 0 1.05915e-05)
(-0.00772797 0 -1.34214e-06)
(-0.00771923 0 -1.16565e-05)
(-0.00769959 0 -1.97973e-05)
(-0.00767022 0 -2.6791e-05)
(-0.0076325 0 -2.97426e-05)
(-0.00759168 0 -3.49161e-05)
(-0.00753819 0 -4.69714e-05)
(-0.00747092 0 -5.64358e-05)
(-0.00739629 0 -6.52106e-05)
(-0.00730768 0 -7.36925e-05)
(-0.00720974 0 -7.68747e-05)
(-0.00710769 0 -8.32143e-05)
(-0.00699207 0 -9.56063e-05)
(-0.00686441 0 -0.000106377)
(-0.00672458 0 -0.000114187)
(-0.00657467 0 -0.000118912)
(-0.00641729 0 -0.000128168)
(-0.00624548 0 -0.000139564)
(-0.00606281 0 -0.000150771)
(-0.00586454 0 -0.000160208)
(-0.00565828 0 -0.000164528)
(-0.00544554 0 -0.000169127)
(-0.00522441 0 -0.000178159)
(-0.0049915 0 -0.000189588)
(-0.00474525 0 -0.000197696)
(-0.00449148 0 -0.000200674)
(-0.00423454 0 -0.000203872)
(-0.00397118 0 -0.000210259)
(-0.00370152 0 -0.000215436)
(-0.00342799 0 -0.000218407)
(-0.00315149 0 -0.000216824)
(-0.0028788 0 -0.00021343)
(-0.00260742 0 -0.000213704)
(-0.00233624 0 -0.000213946)
(-0.00206761 0 -0.000210468)
(-0.001806 0 -0.000202328)
(-0.00155496 0 -0.00019375)
(-0.0013121 0 -0.000188591)
(-0.00107469 0 -0.000183896)
(-0.000845464 0 -0.000177288)
(-0.000625777 0 -0.000167757)
(-0.000419251 0 -0.000156693)
(-0.000224449 0 -0.00014953)
(-3.62298e-05 0 -0.000145171)
(0.000146214 0 -0.000141305)
(0.000323755 0 -0.00013692)
(0.000494614 0 -0.000131707)
(0.000659538 0 -0.000126285)
(0.000817884 0 -0.000121346)
(0.000970929 0 -0.000118702)
(0.00112153 0 -0.000117305)
(0.00126936 0 -0.000115437)
(0.00141483 0 -0.000113243)
(0.00155712 0 -0.00010974)
(0.00169439 0 -0.000106255)
(0.00182954 0 -0.000105275)
(0.00196386 0 -0.000105219)
(0.00209768 0 -0.00010463)
(0.00222987 0 -0.000102662)
(0.00235899 0 -0.000100028)
(0.0024856 0 -9.81579e-05)
(0.00261069 0 -9.80786e-05)
(0.00273626 0 -9.80602e-05)
(0.00286022 0 -9.59526e-05)
(0.00298129 0 -9.40458e-05)
(0.00310094 0 -9.34507e-05)
(0.00321974 0 -9.29297e-05)
(0.00333731 0 -9.16835e-05)
(0.00345308 0 -9.01285e-05)
(0.00356707 0 -8.89806e-05)
(0.00367984 0 -8.77989e-05)
(0.00379059 0 -8.6552e-05)
(0.00389988 0 -8.51127e-05)
(0.00400694 0 -8.31959e-05)
(0.00411159 0 -8.1257e-05)
(0.00421393 0 -7.94502e-05)
(0.00431415 0 -7.80804e-05)
(0.0044128 0 -7.68539e-05)
(0.00450933 0 -7.53377e-05)
(0.00460357 0 -7.33211e-05)
(0.00469482 0 -7.08942e-05)
(0.00478357 0 -6.92359e-05)
(0.00487021 0 -6.77929e-05)
(0.00495507 0 -6.63399e-05)
(0.00503745 0 -6.4122e-05)
(0.00511704 0 -6.2179e-05)
(0.00519404 0 -6.01557e-05)
(0.00526855 0 -5.82977e-05)
(0.00534049 0 -5.56699e-05)
(0.00540917 0 -5.32344e-05)
(0.00547521 0 -5.14606e-05)
(0.0055392 0 -4.99979e-05)
(0.00560118 0 -4.84595e-05)
(0.00566112 0 -4.61766e-05)
(0.0057182 0 -4.42743e-05)
(0.00577305 0 -4.15439e-05)
(0.00582486 0 -3.97121e-05)
(0.00587429 0 -3.68938e-05)
(0.00592163 0 -3.63962e-05)
(0.00596738 0 -3.31679e-05)
(0.00601026 0 -3.17025e-05)
(0.00604995 0 -2.78624e-05)
(0.00608814 0 -2.84064e-05)
(0.00612423 0 -2.44435e-05)
(0.00615815 0 -2.46431e-05)
(0.00618918 0 -2.00511e-05)
(0.00621901 0 -2.09461e-05)
(0.00624529 0 -1.50535e-05)
(0.00626982 0 -1.61345e-05)
(0.0062908 0 -1.07953e-05)
(0.00631147 0 -1.25357e-05)
(0.00632879 0 -7.60292e-06)
(0.00634702 0 -8.70891e-06)
(0.00635992 0 -4.29632e-06)
(0.00637427 0 -4.13034e-06)
(0.00638432 0 -1.89472e-06)
(0.00639435 0 1.17219e-06)
(0.00640499 0 -3.5388e-06)
(0.00641302 0 2.60016e-06)
(0.00642389 0 -1.15345e-05)
(0.00642886 0 -1.17332e-07)
(0.0064365 0 -1.77519e-05)
(0.0064385 0 2.23834e-06)
(0.00643907 0 -1.29951e-05)
(0.00644583 0 9.97955e-06)
(0.00644246 0 -8.68443e-06)
(0.00643914 0 4.28735e-07)
(0.00643528 0 -2.62192e-05)
(0.00641114 0 7.59375e-06)
(0.00638855 0 -3.48368e-09)
(0.00640459 0 6.35032e-05)
(0.00637282 0 4.40865e-05)
(0.00637618 0 -7.24409e-06)
(0.00637278 0 -9.73704e-05)
(0.00621949 0 -6.21233e-05)
(0.00616357 0 -7.13436e-06)
(0.00624018 0 0.000365567)
(0.00606856 0 0.000394939)
(0.00635315 0 4.06927e-05)
(0.00635592 0 -0.000467276)
(0.0072963 0 -0.000770994)
(0.00751125 0 -0.000384009)
(0.0079448 0 -0.000320838)
(0.00803016 0 -0.000178075)
(0.00822183 0 -0.000136792)
(0.00823697 0 -0.000111981)
(0.0083375 0 -3.62659e-05)
(0.00835265 0 -4.21394e-05)
(0.00842575 0 4.96832e-05)
(0.00842233 0 9.44738e-06)
(0.00845047 0 9.21172e-06)
(0.00845767 0 -7.88345e-05)
(0.00831391 0 -1.67817e-07)
(0.00825882 0 1.41693e-05)
(0.00833233 0 0.000372071)
(0.00816669 0 0.000356441)
(0.00842601 0 5.62972e-05)
(0.00842493 0 -0.0004149)
(0.00926066 0 -0.000619038)
(0.00940737 0 -0.000291707)
(0.00977145 0 -0.000234568)
(0.00984083 0 -8.00283e-05)
(0.00997541 0 -6.00178e-05)
(0.0100086 0 5.4926e-06)
(0.0100645 0 -3.64216e-05)
(0.0100627 0 1.65317e-06)
(0.0100553 0 -6.09188e-05)
(0.0099877 0 3.86688e-05)
(0.00995457 0 1.28669e-05)
(0.00991708 0 0.000204202)
(0.00984236 0 6.13522e-05)
(0.00985905 0 5.3302e-05)
(0.00968883 0 -0.00021171)
(0.00922676 0 -8.97719e-05)
(0.00910629 0 7.17349e-05)
(0.00900612 0 0.00123909)
(0.0087396 0 0.000946948)
(0.00984992 0 0.000335509)
(0.0102362 0 -0.00154214)
(0.0143538 0 -0.00321552)
(0.0158857 0 -0.00212656)
(0.0178708 0 -0.00141568)
(0.0189387 0 -0.000962066)
(0.0197189 0 -0.000668819)
(0.0203297 0 -0.000479863)
(0.0207868 0 -0.000358456)
(0.0211401 0 -0.000267002)
(0.0214158 0 -0.000206693)
(0.0216347 0 -0.000162446)
(0.0218132 0 -0.000132801)
(0.021957 0 -0.000101782)
(0.0220698 0 -8.03441e-05)
(0.0221612 0 -6.68028e-05)
(0.0222338 0 -4.85393e-05)
(0.0222873 0 -3.60067e-05)
(0.0223279 0 -2.88968e-05)
(0.0223564 0 -1.48542e-05)
(0.0223709 0 -6.63973e-06)
(0.0223763 0 -1.36041e-06)
(0.022376 0 1.28577e-06)
(0.0223677 0 1.30104e-05)
(0.0223477 0 1.97734e-05)
(0.0223208 0 2.37342e-05)
(0.0222892 0 2.73402e-05)
(0.022253 0 3.0389e-05)
(0.0222122 0 3.43241e-05)
(0.0221666 0 3.82117e-05)
(0.0221167 0 4.13169e-05)
(0.0220625 0 4.50576e-05)
(0.0220041 0 4.82044e-05)
(0.0219408 0 5.28034e-05)
(0.021877 0 4.77363e-05)
(0.021816 0 4.76124e-05)
(0.0217536 0 5.02307e-05)
(0.0216883 0 5.21394e-05)
(0.0216201 0 5.47564e-05)
(0.0215486 0 5.82745e-05)
(0.0214743 0 5.94573e-05)
(0.0213981 0 6.08458e-05)
(0.0213198 0 6.28135e-05)
(0.0212392 0 6.47446e-05)
(0.0211563 0 6.63451e-05)
(0.0210715 0 6.74609e-05)
(0.0209867 0 6.58867e-05)
(0.020898 0 7.43675e-05)
(0.0208028 0 7.70748e-05)
(0.0207059 0 7.70402e-05)
(0.0206089 0 7.71221e-05)
(0.0205117 0 7.75213e-05)
(0.0204142 0 7.71248e-05)
(0.0203168 0 7.72537e-05)
(0.0202188 0 7.78716e-05)
(0.0201196 0 7.90163e-05)
(0.0200188 0 8.06373e-05)
(0.0199161 0 8.21685e-05)
(0.019812 0 8.31145e-05)
(0.0197073 0 8.30656e-05)
(0.019603 0 8.2441e-05)
(0.0194985 0 8.28755e-05)
(0.0193926 0 8.43085e-05)
(0.0192841 0 8.65344e-05)
(0.0191731 0 8.90704e-05)
(0.0190616 0 8.89413e-05)
(0.0189512 0 8.72645e-05)
(0.0188416 0 8.68288e-05)
(0.0187301 0 8.90446e-05)
(0.0186157 0 9.1545e-05)
(0.018501 0 9.09823e-05)
(0.0183883 0 8.88356e-05)
(0.0182762 0 8.8894e-05)
(0.0181613 0 9.22964e-05)
(0.0180479 0 8.53091e-05)
(0.0179433 0 8.22842e-05)
(0.0178317 0 7.93768e-05)
(0.0177754 0 8.92608e-05)
(0.017435 0 9.39174e-05)
(0.0180153 0 9.36168e-05)
(0.0161767 0 9.80954e-05)
(0.0195865 0 0.000101034)
(0.0131327 0 0.000111363)
(-0.230998 0 -0.00149427)
(-0.26363 0 -0.00282002)
(-0.253345 0 -0.00200416)
(-0.252993 0 0.000290271)
(-0.250879 0 0.00255781)
(-0.250809 0 0.00366102)
(-0.248754 0 0.00324274)
(-0.247339 0 0.000100242)
(-0.24257 0 -0.00813464)
(-0.235703 0 -0.0206266)
(-0.224239 0 -0.0340295)
(-0.212223 0 -0.041426)
(-0.201631 0 -0.0411786)
(-0.191238 0 -0.0407961)
(-0.180122 0 -0.0443466)
(-0.172099 0 -0.0446706)
(-0.164823 0 -0.0430893)
(-0.158608 0 -0.0373184)
(-0.153347 0 -0.0290987)
(-0.148908 0 -0.0162584)
(-0.146469 0 0.00100786)
(-0.149186 0 0.0171125)
(-0.152358 0 0.0248762)
(-0.149438 0 0.0290547)
(-0.146172 0 0.0288916)
(-0.142187 0 0.0219622)
(-0.140978 0 0.0118863)
(-0.140245 0 0.0063021)
(-0.139611 0 0.00363444)
(-0.138734 0 0.000581709)
(-0.137505 0 -0.00261475)
(-0.13608 0 -0.00522788)
(-0.134449 0 -0.00689158)
(-0.132265 0 -0.00738052)
(-0.12915 0 -0.00661535)
(-0.125944 0 -0.0053276)
(-0.123088 0 -0.00516636)
(-0.12104 0 -0.00585479)
(-0.118971 0 -0.00647084)
(-0.116743 0 -0.00566326)
(-0.114277 0 -0.0045986)
(-0.111139 0 -0.0054798)
(-0.107745 0 -0.00786192)
(-0.104387 0 -0.0104177)
(-0.100644 0 -0.0109534)
(-0.0964813 0 -0.00970417)
(-0.0927597 0 -0.00707502)
(-0.0894348 0 -0.00491494)
(-0.0862761 0 -0.00565207)
(-0.0832047 0 -0.00797511)
(-0.0796129 0 -0.010233)
(-0.0755741 0 -0.0105487)
(-0.0715676 0 -0.00918134)
(-0.067805 0 -0.00745633)
(-0.0644651 0 -0.00680515)
(-0.0615745 0 -0.00745209)
(-0.0587196 0 -0.00820759)
(-0.0555935 0 -0.00868174)
(-0.0522754 0 -0.00892168)
(-0.0484508 0 -0.0091878)
(-0.04446 0 -0.0103595)
(-0.0405753 0 -0.011287)
(-0.0366299 0 -0.0106833)
(-0.0331157 0 -0.00850626)
(-0.0299126 0 -0.00604417)
(-0.0268214 0 -0.00559207)
(-0.0232559 0 -0.00671134)
(-0.0197482 0 -0.00719795)
(-0.0169241 0 -0.00586426)
(-0.0145322 0 -0.00473363)
(-0.0122754 0 -0.00462486)
(-0.0104422 0 -0.0058877)
(-0.00783282 0 -0.00740615)
(-0.00552278 0 -0.00859955)
(-0.00181104 0 -0.00983211)
(0.000698109 0 -0.00954411)
(0.00280939 0 -0.00929603)
(0.003859 0 -0.00585345)
(0.00427329 0 -0.00990281)
(0.00888577 0 -0.00806626)
(0.00756812 0 -0.00616529)
(0.0163001 0 -0.00256618)
(0.0174909 0 -0.00167453)
(0.0211993 0 -0.000874475)
(0.0230084 0 0.00203093)
(0.0231591 0 0.00417365)
(0.0246196 0 0.00702708)
(0.0230286 0 0.00949497)
(0.0207871 0 0.00891182)
(0.0164479 0 0.00680252)
(0.0121182 0 0.00354685)
(0.0083487 0 0.000943812)
(0.00623015 0 0.000581408)
(0.00455265 0 0.000543959)
(0.0043544 0 0.00138367)
(0.00381422 0 0.00218593)
(0.00335983 0 0.00439766)
(0.00321018 0 0.00620618)
(0.00231453 0 0.00944223)
(0.00436039 0 0.0161816)
(0.000493898 0 0.0195196)
(-0.00363217 0 0.0191338)
(-0.0135517 0 0.0101623)
(-0.021806 0 0.00199532)
(-0.0290214 0 -0.00714869)
(-0.033115 0 -0.00826141)
(-0.0340883 0 -0.00222396)
(-0.0339538 0 0.00199659)
(-0.0331927 0 0.00345245)
(-0.0299578 0 0.00104036)
(-0.0284936 0 0.000890306)
(-0.0285497 0 -0.00185423)
(-0.0275962 0 -0.00306018)
(-0.0270638 0 -0.00274465)
(-0.0266388 0 -0.00186625)
(-0.0252372 0 -0.00163374)
(-0.0241906 0 -8.59663e-06)
(-0.0230266 0 0.000935176)
(-0.0225656 0 0.000520205)
(-0.0220986 0 -0.000135227)
(-0.0229204 0 -0.000644252)
(-0.0233823 0 -0.00124594)
(-0.0233656 0 -0.00256289)
(-0.0227027 0 -0.00316942)
(-0.0221525 0 -0.00221834)
(-0.0212395 0 -0.00209947)
(-0.0199023 0 -0.00177334)
(-0.0188808 0 -0.00185279)
(-0.0180199 0 -0.00218323)
(-0.0169565 0 -0.00269408)
(-0.0160768 0 -0.00256196)
(-0.0150651 0 -0.00268323)
(-0.0139811 0 -0.00248376)
(-0.0128873 0 -0.00266398)
(-0.0117705 0 -0.00264052)
(-0.0106728 0 -0.00277037)
(-0.009488 0 -0.00289269)
(-0.0083046 0 -0.0029368)
(-0.00712581 0 -0.00296768)
(-0.00591921 0 -0.00292465)
(-0.00474293 0 -0.0029029)
(-0.00354026 0 -0.00284519)
(-0.00235397 0 -0.00282095)
(-0.00117019 0 -0.00280487)
(-3.93951e-06 0 -0.00276229)
(0.0011391 0 -0.00264985)
(0.0022569 0 -0.00260143)
(0.0033699 0 -0.00257945)
(0.00447555 0 -0.00258478)
(0.00557532 0 -0.00258309)
(0.00664632 0 -0.0025313)
(0.00769545 0 -0.00244993)
(0.00873867 0 -0.00240611)
(0.00977462 0 -0.00241384)
(0.0108158 0 -0.0024263)
(0.0118433 0 -0.00240363)
(0.0128447 0 -0.00235811)
(0.0138284 0 -0.00231976)
(0.0148144 0 -0.00229515)
(0.0158049 0 -0.00227332)
(0.0167794 0 -0.00223774)
(0.0177274 0 -0.00220714)
(0.0186559 0 -0.00218444)
(0.0195796 0 -0.00216387)
(0.0204938 0 -0.00211716)
(0.0213824 0 -0.00205013)
(0.0222492 0 -0.00201853)
(0.0231073 0 -0.00200189)
(0.0239526 0 -0.00194941)
(0.0247655 0 -0.00186853)
(0.0255507 0 -0.00182005)
(0.0263203 0 -0.00179594)
(0.0270775 0 -0.00175364)
(0.0278069 0 -0.00167966)
(0.0285037 0 -0.00159347)
(0.029174 0 -0.00153732)
(0.0298201 0 -0.00150305)
(0.0304447 0 -0.00144593)
(0.0310398 0 -0.00136379)
(0.0316046 0 -0.00128473)
(0.0321457 0 -0.00122238)
(0.0326524 0 -0.0011566)
(0.0331205 0 -0.00106189)
(0.033554 0 -0.000969471)
(0.033954 0 -0.000908203)
(0.0343271 0 -0.000855358)
(0.0346697 0 -0.000772885)
(0.0349791 0 -0.000669706)
(0.0352496 0 -0.000566834)
(0.0354723 0 -0.000473127)
(0.0356506 0 -0.000394058)
(0.0357934 0 -0.000318317)
(0.035904 0 -0.000230637)
(0.0359809 0 -0.00011994)
(0.0360186 0 -1.40113e-05)
(0.0360088 0 9.0267e-05)
(0.0359491 0 0.000181002)
(0.0358493 0 0.000254548)
(0.0357196 0 0.00033283)
(0.0355533 0 0.000434664)
(0.03534 0 0.00056003)
(0.035078 0 0.000669568)
(0.0347818 0 0.000754762)
(0.0344514 0 0.000820398)
(0.0340835 0 0.000895235)
(0.0336754 0 0.00099303)
(0.0332248 0 0.00109416)
(0.0327403 0 0.0011851)
(0.0322286 0 0.00124894)
(0.0316877 0 0.00130421)
(0.0311111 0 0.00138591)
(0.0304923 0 0.00148879)
(0.0298458 0 0.00155676)
(0.0291867 0 0.00158398)
(0.0285048 0 0.00161176)
(0.0278021 0 0.00166009)
(0.0270773 0 0.00174135)
(0.0263266 0 0.00181678)
(0.0255531 0 0.00185426)
(0.0247642 0 0.00185241)
(0.0239762 0 0.00184393)
(0.0231821 0 0.0018601)
(0.0223784 0 0.00190062)
(0.0215641 0 0.00195074)
(0.02074 0 0.00196519)
(0.0199106 0 0.00195508)
(0.019083 0 0.00193617)
(0.0182616 0 0.00191207)
(0.017443 0 0.00190189)
(0.0166306 0 0.00192057)
(0.0158181 0 0.0019326)
(0.0150063 0 0.00190738)
(0.0142052 0 0.0018716)
(0.0134183 0 0.00184)
(0.0126461 0 0.00180211)
(0.011887 0 0.00177699)
(0.0111344 0 0.0017664)
(0.0103856 0 0.00175074)
(0.00964262 0 0.0017139)
(0.00892038 0 0.00167852)
(0.00821404 0 0.00165293)
(0.00753014 0 0.00161656)
(0.00686185 0 0.00156892)
(0.00620248 0 0.00151867)
(0.0055585 0 0.001482)
(0.00492969 0 0.00145863)
(0.00431379 0 0.00145166)
(0.00371288 0 0.00140969)
(0.00313461 0 0.00133389)
(0.00257474 0 0.0012907)
(0.00203037 0 0.00126034)
(0.00149606 0 0.00123458)
(0.000977221 0 0.00120522)
(0.000481091 0 0.00115915)
(5.5066e-06 0 0.0011131)
(-0.000455935 0 0.00107288)
(-0.000904822 0 0.00103111)
(-0.00134024 0 0.00099906)
(-0.00176552 0 0.000968553)
(-0.00216884 0 0.000929469)
(-0.00254735 0 0.000886886)
(-0.00291231 0 0.000840862)
(-0.00326331 0 0.000802491)
(-0.00360093 0 0.000778297)
(-0.00392884 0 0.000758798)
(-0.00424349 0 0.000732333)
(-0.00454206 0 0.000691488)
(-0.00482181 0 0.000634826)
(-0.00508377 0 0.000595667)
(-0.00533308 0 0.000566526)
(-0.0055703 0 0.000539951)
(-0.00579656 0 0.000520326)
(-0.00600818 0 0.00049621)
(-0.00620591 0 0.000458982)
(-0.00639119 0 0.000420417)
(-0.00656491 0 0.000389237)
(-0.00672519 0 0.000358793)
(-0.00687036 0 0.000328362)
(-0.00700278 0 0.000296753)
(-0.00712153 0 0.000268382)
(-0.00723184 0 0.000251724)
(-0.00733386 0 0.00023554)
(-0.00742373 0 0.000202573)
(-0.00749885 0 0.00016375)
(-0.00756055 0 0.00013391)
(-0.00761374 0 0.000110421)
(-0.00765769 0 8.76538e-05)
(-0.00769094 0 6.7916e-05)
(-0.00771245 0 5.09628e-05)
(-0.00772444 0 2.64058e-05)
(-0.00772567 0 -4.59974e-06)
(-0.00771676 0 -3.31605e-05)
(-0.00769915 0 -5.72631e-05)
(-0.00767194 0 -7.88732e-05)
(-0.0076331 0 -9.3833e-05)
(-0.00758429 0 -0.000113291)
(-0.00752488 0 -0.000143086)
(-0.00745754 0 -0.000166558)
(-0.00738447 0 -0.000191311)
(-0.00729863 0 -0.000219629)
(-0.00719853 0 -0.000237555)
(-0.00708754 0 -0.000258698)
(-0.00696782 0 -0.00028705)
(-0.00684284 0 -0.000313632)
(-0.00670599 0 -0.000341492)
(-0.00655229 0 -0.000363755)
(-0.00638864 0 -0.000389304)
(-0.00621679 0 -0.00041736)
(-0.00603616 0 -0.000447817)
(-0.00584179 0 -0.000475587)
(-0.00563709 0 -0.000493801)
(-0.00542138 0 -0.000512763)
(-0.00519803 0 -0.000535202)
(-0.0049686 0 -0.000563455)
(-0.00472805 0 -0.00058802)
(-0.00447783 0 -0.000601955)
(-0.00422057 0 -0.000613615)
(-0.00395866 0 -0.00062745)
(-0.00369539 0 -0.000638021)
(-0.0034298 0 -0.000645951)
(-0.00316065 0 -0.00064617)
(-0.00288963 0 -0.000641502)
(-0.00261942 0 -0.000638892)
(-0.00235276 0 -0.000634299)
(-0.00209161 0 -0.000622743)
(-0.00183704 0 -0.000603231)
(-0.00158703 0 -0.000582335)
(-0.00134387 0 -0.000566103)
(-0.00110783 0 -0.000549396)
(-0.000881181 0 -0.000528074)
(-0.000664328 0 -0.000502063)
(-0.000455992 0 -0.000473895)
(-0.000256468 0 -0.000452387)
(-6.51394e-05 0 -0.000437227)
(0.000119455 0 -0.000424394)
(0.000297012 0 -0.000410533)
(0.000468261 0 -0.000395917)
(0.000634501 0 -0.0003817)
(0.000796128 0 -0.000367927)
(0.000952607 0 -0.000358414)
(0.00110451 0 -0.000351602)
(0.00125244 0 -0.000345381)
(0.00139802 0 -0.000338887)
(0.00154015 0 -0.000329535)
(0.00167926 0 -0.000321743)
(0.00181741 0 -0.000318174)
(0.00195324 0 -0.000316081)
(0.00208715 0 -0.000313378)
(0.00221894 0 -0.000307927)
(0.00234906 0 -0.000301795)
(0.00247778 0 -0.000297337)
(0.00260498 0 -0.000295777)
(0.00273066 0 -0.000294039)
(0.00285479 0 -0.000289019)
(0.00297767 0 -0.000284169)
(0.00309879 0 -0.000281197)
(0.00321789 0 -0.000278455)
(0.00333527 0 -0.000274921)
(0.00345156 0 -0.000270856)
(0.00356638 0 -0.000267268)
(0.00367958 0 -0.000263395)
(0.00379063 0 -0.000259123)
(0.00389981 0 -0.000254848)
(0.0040074 0 -0.000249376)
(0.00411291 0 -0.000243993)
(0.00421656 0 -0.000238741)
(0.00431776 0 -0.000234408)
(0.00441676 0 -0.000229742)
(0.00451347 0 -0.000224401)
(0.00460774 0 -0.000218023)
(0.00469963 0 -0.000211875)
(0.00478904 0 -0.000206243)
(0.00487601 0 -0.00020162)
(0.00496089 0 -0.000196339)
(0.00504335 0 -0.000190319)
(0.0051232 0 -0.000183789)
(0.0052002 0 -0.000177876)
(0.00527437 0 -0.000171737)
(0.0053465 0 -0.000165282)
(0.00541606 0 -0.000158385)
(0.00548329 0 -0.000152834)
(0.00554737 0 -0.000147889)
(0.00560938 0 -0.000143078)
(0.00566885 0 -0.000137661)
(0.00572607 0 -0.000131528)
(0.00578028 0 -0.000126104)
(0.00583262 0 -0.000119262)
(0.00588223 0 -0.000115257)
(0.00593026 0 -0.000109776)
(0.00597482 0 -0.000106237)
(0.00601817 0 -9.79318e-05)
(0.0060583 0 -9.46634e-05)
(0.00609758 0 -8.82476e-05)
(0.00613271 0 -8.57259e-05)
(0.00616666 0 -7.74392e-05)
(0.00619703 0 -7.5725e-05)
(0.0062269 0 -6.73981e-05)
(0.00625289 0 -6.48776e-05)
(0.00627883 0 -5.57317e-05)
(0.00630005 0 -5.46265e-05)
(0.00632025 0 -4.77047e-05)
(0.00633774 0 -4.80981e-05)
(0.00635369 0 -4.09963e-05)
(0.00636817 0 -3.80842e-05)
(0.00637999 0 -3.52942e-05)
(0.00639406 0 -2.89991e-05)
(0.00639821 0 -3.48891e-05)
(0.00641253 0 -2.51478e-05)
(0.00640867 0 -3.33836e-05)
(0.00642437 0 -1.28175e-05)
(0.00642539 0 -2.01386e-05)
(0.00644265 0 2.90779e-06)
(0.00644827 0 -6.23263e-06)
(0.00645258 0 1.51421e-06)
(0.00645499 0 -1.57946e-05)
(0.00643466 0 1.97826e-05)
(0.00642253 0 1.05061e-05)
(0.00644579 0 7.14733e-05)
(0.00644215 0 6.68618e-05)
(0.00646079 0 9.935e-06)
(0.00645039 0 -4.15916e-05)
(0.00629448 0 2.57622e-06)
(0.00622938 0 3.597e-06)
(0.00632246 0 0.000350078)
(0.00630573 0 0.000399595)
(0.00664274 0 -3.1948e-05)
(0.00668622 0 -0.000226289)
(0.00764042 0 -0.000568716)
(0.0078366 0 -0.000523598)
(0.00826106 0 -0.000988154)
(0.00810058 0 -0.001026)
(0.00820632 0 -0.000659923)
(0.00817639 0 -0.000473353)
(0.00825669 0 -0.000269956)
(0.00830117 0 -0.000176355)
(0.00837296 0 -7.43427e-05)
(0.00842628 0 -0.000142902)
(0.00847245 0 -9.63229e-05)
(0.00849844 0 -0.000165569)
(0.00837306 0 -4.27735e-05)
(0.00832964 0 -7.36769e-05)
(0.00844441 0 0.000305015)
(0.00843516 0 0.000315973)
(0.00877961 0 -4.59792e-05)
(0.00880643 0 -0.000244999)
(0.00969484 0 -0.000497293)
(0.00981474 0 -0.000500994)
(0.0101857 0 -0.000866514)
(0.0100106 0 -0.000903982)
(0.0100987 0 -0.000538679)
(0.0100767 0 -0.000423229)
(0.0101039 0 -0.000256158)
(0.0101103 0 -0.000190753)
(0.0100384 0 -0.000156268)
(0.0100689 0 -3.94594e-05)
(0.0100309 0 6.05828e-06)
(0.0101152 0 0.000187247)
(0.0100974 0 0.000114218)
(0.0102165 0 0.000100226)
(0.0100429 0 -3.1245e-05)
(0.00960159 0 2.87739e-05)
(0.00942676 0 0.000187983)
(0.00946326 0 0.00122329)
(0.00965403 0 0.00100127)
(0.010988 0 0.000264047)
(0.0118603 0 -0.000667266)
(0.0160999 0 -0.00232827)
(0.0173305 0 -0.00268758)
(0.0189617 0 -0.00541943)
(0.0194176 0 -0.0052968)
(0.0194134 0 -0.00404373)
(0.0197714 0 -0.00275786)
(0.0201528 0 -0.00199133)
(0.0205014 0 -0.00148258)
(0.0208198 0 -0.00113413)
(0.021103 0 -0.000890687)
(0.0213484 0 -0.000694647)
(0.0215568 0 -0.000554347)
(0.0217335 0 -0.000450269)
(0.0218828 0 -0.000371702)
(0.0220057 0 -0.000291534)
(0.0221061 0 -0.000233729)
(0.0221879 0 -0.00019388)
(0.0222532 0 -0.000143918)
(0.0223035 0 -0.000107957)
(0.0223412 0 -8.50594e-05)
(0.0223676 0 -4.70231e-05)
(0.0223837 0 -2.27924e-05)
(0.0223908 0 -5.58044e-06)
(0.0223897 0 6.02583e-06)
(0.0223806 0 3.61012e-05)
(0.0223632 0 5.55158e-05)
(0.0223393 0 6.78891e-05)
(0.0223094 0 7.98572e-05)
(0.0222735 0 9.13175e-05)
(0.0222326 0 0.000102249)
(0.0221875 0 0.000112862)
(0.022138 0 0.000122534)
(0.0220842 0 0.000132995)
(0.0220268 0 0.00014187)
(0.0219662 0 0.000153286)
(0.0219031 0 0.000144835)
(0.0218378 0 0.000146741)
(0.0217703 0 0.000153019)
(0.0217004 0 0.000159112)
(0.0216282 0 0.000165761)
(0.0215544 0 0.000172301)
(0.0214787 0 0.000177867)
(0.0214004 0 0.000182393)
(0.0213202 0 0.000187768)
(0.0212378 0 0.000193449)
(0.0211528 0 0.000199043)
(0.0210657 0 0.000202025)
(0.020977 0 0.000201158)
(0.0208859 0 0.00021948)
(0.0207931 0 0.000225195)
(0.0206992 0 0.000226327)
(0.0206039 0 0.000227519)
(0.0205074 0 0.000229001)
(0.0204099 0 0.000229466)
(0.0203114 0 0.00023049)
(0.0202121 0 0.000232316)
(0.020112 0 0.000235408)
(0.0200106 0 0.000239707)
(0.0199078 0 0.00024381)
(0.0198038 0 0.000246117)
(0.0196991 0 0.000246191)
(0.0195938 0 0.000245751)
(0.0194877 0 0.000247672)
(0.0193796 0 0.000253114)
(0.0192694 0 0.00025954)
(0.0191589 0 0.000262451)
(0.0190494 0 0.000260435)
(0.0189399 0 0.000258214)
(0.0188285 0 0.000260407)