/*--------------------------------*- C++ -*----------------------------------*\
| =========                 |                                                 |
| \\      /  F ield         | OpenFOAM: The Open Source CFD Toolbox           |
|  \\    /   O peration     | Version:  v2006                                 |
|   \\  /    A nd           | Website:  www.openfoam.com                      |
|    \\/     M anipulation  |                                                 |
\*---------------------------------------------------------------------------*/
FoamFile
{
    version     2.0;
    format      ascii;
    class       surfaceScalarField;
    location    "6.4";
    object      alphaPhi0.water;
}
// * * * * * * * * * * * * * * * * * * * * * * * * * * * * * * * * * * * * * //

dimensions      [0 3 -1 0 0 0 0];
oriented        oriented;


internalField   nonuniform List<scalar> 
65390
(
3.02513e-05
-2.10474e-06
3.58907e-05
-5.6402e-06
4.0583e-05
-4.6931e-06
4.45774e-05
-3.99511e-06
4.79937e-05
-3.41682e-06
5.08681e-05
-2.87475e-06
5.33377e-05
-2.46983e-06
5.52246e-05
-1.88709e-06
5.68753e-05
-1.65084e-06
5.8616e-05
-1.74087e-06
6.08885e-05
-2.27255e-06
6.32494e-05
-2.36095e-06
6.57034e-05
-2.45411e-06
6.72594e-05
-1.55603e-06
6.67797e-05
4.79649e-07
6.38824e-05
2.89727e-06
5.91032e-05
4.77907e-06
5.35255e-05
5.57752e-06
4.57429e-05
7.78253e-06
3.50323e-05
1.07097e-05
2.6533e-05
8.49122e-06
2.19559e-05
4.57707e-06
1.83997e-05
3.55823e-06
1.53645e-05
3.03726e-06
1.33056e-05
2.0589e-06
1.14166e-05
1.88904e-06
9.07611e-06
2.34038e-06
6.5478e-06
2.52671e-06
3.91245e-06
2.63202e-06
1.4409e-06
2.47185e-06
-6.76539e-07
2.11776e-06
-2.72673e-06
2.04978e-06
-4.74916e-06
2.02164e-06
-6.28313e-06
1.53357e-06
-7.18989e-06
9.06779e-07
-8.08881e-06
8.98967e-07
-9.59856e-06
1.51185e-06
-1.18161e-05
2.21962e-06
-1.43379e-05
2.52255e-06
-1.63491e-05
2.00278e-06
-1.74297e-05
1.07995e-06
-1.82155e-05
7.85821e-07
-1.92062e-05
9.90824e-07
-2.05895e-05
1.38575e-06
-2.24618e-05
1.88e-06
-2.45101e-05
2.04831e-06
-2.62182e-05
1.70097e-06
-2.73257e-05
1.10251e-06
-2.8142e-05
8.16353e-07
-2.89395e-05
7.97724e-07
-2.97264e-05
7.86983e-07
-3.04955e-05
7.69033e-07
-3.11775e-05
6.81608e-07
-3.2017e-05
8.39658e-07
-3.32947e-05
1.27855e-06
-3.49552e-05
1.66852e-06
-3.67157e-05
1.76842e-06
-3.82564e-05
1.54067e-06
-3.94787e-05
1.20731e-06
-4.05137e-05
1.03318e-06
-4.16705e-05
1.15625e-06
-4.30035e-05
1.33247e-06
-4.41021e-05
1.09714e-06
-4.45191e-05
4.16767e-07
-4.41599e-05
-3.59225e-07
-4.3421e-05
-7.38891e-07
-4.26049e-05
-8.15998e-07
-4.17628e-05
-8.39649e-07
-4.07903e-05
-9.63534e-07
-3.94568e-05
-1.32522e-06
-3.76643e-05
-1.79249e-06
-3.50597e-05
-2.60456e-06
-3.14794e-05
-3.58035e-06
-2.71859e-05
-4.29345e-06
-2.26532e-05
-4.54329e-06
-1.84135e-05
-4.24351e-06
-1.51732e-05
-3.24166e-06
-1.33077e-05
-1.86635e-06
-1.20924e-05
-1.21558e-06
-1.19685e-05
-1.23993e-07
-1.40816e-05
2.11308e-06
-1.62602e-05
2.1786e-06
-1.80853e-05
1.8255e-06
-1.93825e-05
1.29826e-06
-2.05766e-05
1.1953e-06
-2.10629e-05
4.84503e-07
-2.13298e-05
2.68057e-07
-2.15597e-05
2.32424e-07
-2.16965e-05
1.36521e-07
-2.17412e-05
4.50349e-08
-2.16172e-05
-1.28706e-07
-2.12117e-05
-4.05492e-07
-2.03787e-05
-8.3305e-07
-1.91916e-05
-1.18716e-06
-1.72868e-05
-1.90457e-06
-1.47972e-05
-2.48965e-06
-1.17635e-05
-3.03358e-06
-8.66835e-06
-3.09469e-06
-5.91307e-06
-2.75372e-06
-4.6313e-06
-1.28173e-06
-4.60918e-06
-2.20856e-08
-5.03313e-06
4.23981e-07
-5.69713e-06
6.64027e-07
-6.23846e-06
5.40042e-07
-7.01332e-06
7.74851e-07
-7.40911e-06
3.95765e-07
-7.53129e-06
1.2216e-07
-7.72332e-06
1.92634e-07
-8.02338e-06
3.01351e-07
-8.32399e-06
3.00614e-07
-8.59315e-06
2.67188e-07
-8.83502e-06
2.41455e-07
-8.89812e-06
6.32063e-08
-8.77603e-06
-1.21711e-07
-8.35914e-06
-4.16183e-07
-7.75268e-06
-6.06462e-07
-6.88494e-06
-8.6774e-07
-6.41151e-06
-4.74077e-07
-6.50754e-06
9.5849e-08
-6.75804e-06
2.5053e-07
-7.13611e-06
3.78183e-07
-7.45281e-06
3.18356e-07
-7.94682e-06
4.94015e-07
-8.35299e-06
4.04585e-07
-8.63246e-06
2.79156e-07
-8.93335e-06
3.00896e-07
-9.21964e-06
2.86289e-07
-9.5094e-06
2.89751e-07
-9.83212e-06
3.23409e-07
-1.01325e-05
3.01037e-07
-1.04086e-05
2.75676e-07
-1.06789e-05
2.70167e-07
-1.09327e-05
2.53164e-07
-1.11937e-05
2.60638e-07
-1.14529e-05
2.59153e-07
-1.17134e-05
2.60571e-07
-1.19702e-05
2.56779e-07
-1.22154e-05
2.45121e-07
-1.24579e-05
2.4268e-07
-1.26924e-05
2.3699e-07
-1.29293e-05
2.36915e-07
-1.31587e-05
2.29362e-07
-1.33806e-05
2.20833e-07
-1.35912e-05
2.09136e-07
-1.37872e-05
1.96068e-07
-1.3974e-05
1.86757e-07
-1.41562e-05
1.82226e-07
-1.43326e-05
1.77825e-07
-1.45014e-05
1.72102e-07
-1.46666e-05
1.59974e-07
-1.48091e-05
1.42437e-07
-1.49425e-05
1.33443e-07
-1.50705e-05
1.28111e-07
-1.51909e-05
1.22314e-07
-1.5305e-05
1.14131e-07
-1.54081e-05
1.03086e-07
-1.55039e-05
9.34758e-08
-1.55884e-05
8.43481e-08
-1.56637e-05
7.52072e-08
-1.57301e-05
6.63984e-08
-1.57869e-05
5.67863e-08
-1.58351e-05
4.88518e-08
-1.58777e-05
4.30846e-08
-1.59113e-05
3.27244e-08
-1.59303e-05
1.90218e-08
-1.594e-05
9.69083e-09
-1.59443e-05
4.76451e-09
-1.5943e-05
-1.51872e-09
-1.5929e-05
-1.45792e-08
-1.59004e-05
-2.85453e-08
-1.58631e-05
-3.73282e-08
-1.58202e-05
-4.22977e-08
-1.57714e-05
-4.83933e-08
-1.5714e-05
-5.81741e-08
-1.56417e-05
-7.23727e-08
-1.55583e-05
-8.33834e-08
-1.54668e-05
-9.09983e-08
-1.53687e-05
-9.68389e-08
-1.52636e-05
-1.05128e-07
-1.51493e-05
-1.14263e-07
-1.50293e-05
-1.20008e-07
-1.49046e-05
-1.26367e-07
-1.47693e-05
-1.3529e-07
-1.46227e-05
-1.46588e-07
-1.44639e-05
-1.58378e-07
-1.42976e-05
-1.65314e-07
-1.41282e-05
-1.69514e-07
-1.39556e-05
-1.7306e-07
-1.37784e-05
-1.78259e-07
-1.3591e-05
-1.87363e-07
-1.33943e-05
-1.96654e-07
-1.31888e-05
-2.05149e-07
-1.29759e-05
-2.117e-07
-1.27609e-05
-2.14961e-07
-1.25417e-05
-2.19227e-07
-1.23179e-05
-2.25398e-07
-1.2085e-05
-2.33081e-07
-1.18414e-05
-2.43599e-07
-1.15868e-05
-2.54578e-07
-1.13249e-05
-2.6195e-07
-1.10605e-05
-2.63669e-07
-1.07955e-05
-2.64418e-07
-1.05252e-05
-2.70335e-07
-1.02447e-05
-2.81144e-07
-9.95019e-06
-2.95005e-07
-9.64479e-06
-3.05406e-07
-9.33483e-06
-3.09971e-07
-9.0219e-06
-3.1261e-07
-8.70374e-06
-3.17618e-07
-8.37571e-06
-3.28715e-07
-8.03361e-06
-3.42112e-07
-7.68611e-06
-3.47517e-07
-7.34298e-06
-3.42779e-07
-7.00266e-06
-3.40259e-07
-6.64922e-06
-3.53874e-07
-6.28139e-06
-3.67953e-07
-5.90853e-06
-3.72887e-07
-5.53591e-06
-3.72427e-07
-5.17451e-06
-3.61068e-07
-4.82605e-06
-3.48473e-07
-4.47984e-06
-3.46432e-07
-4.12978e-06
-3.50274e-07
-3.7765e-06
-3.53287e-07
-3.4285e-06
-3.48008e-07
-3.09258e-06
-3.35837e-07
-2.77767e-06
-3.14789e-07
-2.47854e-06
-2.99132e-07
-2.18785e-06
-2.90801e-07
-1.90409e-06
-2.83806e-07
-1.62513e-06
-2.78965e-07
-1.35484e-06
-2.70313e-07
-1.09966e-06
-2.55154e-07
-8.64836e-07
-2.34797e-07
-6.42644e-07
-2.22188e-07
-4.26701e-07
-2.15951e-07
-2.18544e-07
-2.08145e-07
-1.77242e-08
-2.00808e-07
1.75682e-07
-1.93399e-07
3.5938e-07
-1.83695e-07
5.34022e-07
-1.74622e-07
7.0129e-07
-1.67247e-07
8.60337e-07
-1.59024e-07
1.01101e-06
-1.50666e-07
1.1557e-06
-1.44665e-07
1.2979e-06
-1.4215e-07
1.43933e-06
-1.414e-07
1.57879e-06
-1.39475e-07
1.71387e-06
-1.35069e-07
1.83942e-06
-1.25722e-07
1.96053e-06
-1.2101e-07
2.08423e-06
-1.23634e-07
2.20942e-06
-1.25219e-07
2.3332e-06
-1.238e-07
2.45505e-06
-1.21876e-07
2.57346e-06
-1.18506e-07
2.68995e-06
-1.16485e-07
2.80752e-06
-1.17566e-07
2.92634e-06
-1.18778e-07
3.0459e-06
-1.19581e-07
3.16631e-06
-1.20419e-07
3.28632e-06
-1.20064e-07
3.4061e-06
-1.1984e-07
3.52727e-06
-1.21174e-07
3.65076e-06
-1.23418e-07
3.77709e-06
-1.26279e-07
3.9046e-06
-1.27513e-07
4.03089e-06
-1.26288e-07
4.15551e-06
-1.24802e-07
4.28193e-06
-1.26263e-07
4.41229e-06
-1.30246e-07
4.54555e-06
-1.33231e-07
4.68005e-06
-1.34489e-07
4.81552e-06
-1.35467e-07
4.95095e-06
-1.35487e-07
5.08519e-06
-1.34375e-07
5.22036e-06
-1.35058e-07
5.35703e-06
-1.36642e-07
5.49498e-06
-1.37955e-07
5.63388e-06
-1.38934e-07
5.77336e-06
-1.39505e-07
5.91341e-06
-1.40069e-07
6.0535e-06
-1.40121e-07
6.1917e-06
-1.38338e-07
6.32836e-06
-1.36628e-07
6.4656e-06
-1.37206e-07
6.60332e-06
-1.37717e-07
6.74031e-06
-1.36987e-07
6.87609e-06
-1.3577e-07
7.01059e-06
-1.34491e-07
7.14306e-06
-1.32499e-07
7.27313e-06
-1.30068e-07
7.40146e-06
-1.28248e-07
7.52828e-06
-1.26704e-07
7.65315e-06
-1.24815e-07
7.77578e-06
-1.22581e-07
7.89554e-06
-1.19733e-07
8.01152e-06
-1.16114e-07
8.12449e-06
-1.12813e-07
8.23425e-06
-1.09653e-07
8.34079e-06
-1.06484e-07
8.4442e-06
-1.03377e-07
8.54362e-06
-9.93955e-08
8.63821e-06
-9.46456e-08
8.72883e-06
-9.0512e-08
8.81543e-06
-8.65319e-08
8.89766e-06
-8.22669e-08
8.97523e-06
-7.75662e-08
9.04783e-06
-7.25861e-08
9.11557e-06
-6.77138e-08
9.17874e-06
-6.31857e-08
9.2372e-06
-5.84724e-08
9.29008e-06
-5.2932e-08
9.337e-06
-4.69492e-08
9.37858e-06
-4.15463e-08
9.41531e-06
-3.67207e-08
9.44686e-06
-3.15703e-08
9.47265e-06
-2.58065e-08
9.49266e-06
-2.0029e-08
9.50707e-06
-1.44078e-08
9.51594e-06
-8.87681e-09
9.51922e-06
-3.32308e-09
9.51656e-06
2.61886e-09
9.50782e-06
8.70441e-09
9.49347e-06
1.43504e-08
9.47362e-06
1.98572e-08
9.44782e-06
2.57867e-08
9.41555e-06
3.22275e-08
9.37711e-06
3.8439e-08
9.33301e-06
4.40944e-08
9.28338e-06
4.96694e-08
9.22779e-06
5.55705e-08
9.16547e-06
6.22796e-08
9.09626e-06
6.91725e-08
9.02107e-06
7.51893e-08
8.94051e-06
8.05504e-08
8.85458e-06
8.59108e-08
8.76299e-06
9.15651e-08
8.66559e-06
9.73692e-08
8.56225e-06
1.03334e-07
8.45324e-06
1.09011e-07
8.3392e-06
1.14067e-07
8.22027e-06
1.18932e-07
8.09658e-06
1.23708e-07
7.96772e-06
1.28867e-07
7.83348e-06
1.34224e-07
7.69474e-06
1.38759e-07
7.55214e-06
1.42631e-07
7.40582e-06
1.46336e-07
7.25548e-06
1.50343e-07
7.10071e-06
1.54753e-07
6.94178e-06
1.58925e-07
6.77975e-06
1.62022e-07
6.61511e-06
1.64642e-07
6.44704e-06
1.68035e-07
6.27555e-06
1.71467e-07
6.1015e-06
1.74039e-07
5.9251e-06
1.76394e-07
5.74637e-06
1.78714e-07
5.56547e-06
1.80886e-07
5.38267e-06
1.828e-07
5.19813e-06
1.84533e-07
5.01206e-06
1.86084e-07
4.82462e-06
1.87459e-07
4.63575e-06
1.88897e-07
4.44557e-06
1.902e-07
4.25445e-06
1.91164e-07
4.06299e-06
1.91502e-07
3.87139e-06
1.91642e-07
3.67972e-06
1.917e-07
3.48782e-06
1.91915e-07
3.29592e-06
1.91913e-07
3.10461e-06
1.91312e-07
2.91445e-06
1.90151e-07
2.72557e-06
1.88881e-07
2.53772e-06
1.8783e-07
2.3512e-06
1.86507e-07
2.16632e-06
1.84873e-07
1.98322e-06
1.8309e-07
1.80182e-06
1.81383e-07
1.6224e-06
1.79409e-07
1.44572e-06
1.76678e-07
1.27228e-06
1.73429e-07
1.10205e-06
1.70227e-07
9.34844e-07
1.67197e-07
7.70813e-07
1.6403e-07
6.10106e-07
1.60709e-07
4.52782e-07
1.5733e-07
2.995e-07
1.53292e-07
1.50515e-07
1.48999e-07
5.61896e-09
1.44911e-07
-1.35511e-07
1.41147e-07
-2.72457e-07
1.36962e-07
-4.04791e-07
1.32348e-07
-5.32625e-07
1.27845e-07
-6.56261e-07
1.23645e-07
-7.75463e-07
1.19208e-07
-8.90546e-07
1.15087e-07
-1.00172e-06
1.1118e-07
-1.10883e-06
1.07101e-07
-1.21155e-06
1.02725e-07
-1.30964e-06
9.80846e-08
-1.40302e-06
9.33856e-08
-1.49221e-06
8.91916e-08
-1.5773e-06
8.50919e-08
-1.65827e-06
8.09759e-08
-1.73522e-06
7.69545e-08
-1.80738e-06
7.21639e-08
-1.87489e-06
6.75073e-08
-1.93773e-06
6.28459e-08
-1.99647e-06
5.87296e-08
-2.0514e-06
5.49332e-08
-2.1022e-06
5.07987e-08
-2.1495e-06
4.72947e-08
-2.19134e-06
4.18329e-08
-2.22964e-06
3.8285e-08
-2.26382e-06
3.41805e-08
-2.2943e-06
3.0476e-08
-2.32314e-06
2.88308e-08
-2.34937e-06
2.62231e-08
-2.36869e-06
1.93177e-08
-2.38524e-06
1.65354e-08
-2.39575e-06
1.05071e-08
-2.40247e-06
6.71844e-09
-2.41698e-06
1.45037e-08
-2.42955e-06
1.25618e-08
-2.43673e-06
7.17198e-09
-2.4409e-06
4.16433e-09
-2.4162e-06
-2.47037e-08
-2.38246e-06
-3.37392e-08
-2.28157e-06
-1.00888e-07
-2.12959e-06
-1.51982e-07
-2.01269e-06
-1.16906e-07
-1.9266e-06
-8.6098e-08
-1.86056e-06
-6.6038e-08
-1.81057e-06
-4.9989e-08
-1.76406e-06
-4.65116e-08
-1.71367e-06
-5.03944e-08
-1.66053e-06
-5.31409e-08
-1.60736e-06
-5.31703e-08
-1.55567e-06
-5.1682e-08
-1.49562e-06
-6.00573e-08
-1.47713e-06
-1.8485e-08
-1.47144e-06
-5.6841e-09
-1.42378e-06
-4.7658e-08
-1.391e-06
-3.27807e-08
-1.2933e-06
-9.77031e-08
-1.1596e-06
-1.33702e-07
-8.61373e-07
-2.98225e-07
-4.5582e-07
-4.05551e-07
-1.40924e-07
-3.14894e-07
1.27594e-07
-2.68517e-07
3.14451e-07
-1.86857e-07
4.79253e-07
-1.64802e-07
6.14147e-07
-1.34895e-07
7.36888e-07
-1.22741e-07
8.39952e-07
-1.03065e-07
9.27125e-07
-8.71742e-08
1.01469e-06
-8.7568e-08
1.09171e-06
-7.70222e-08
1.16508e-06
-7.33716e-08
1.2615e-06
-9.64217e-08
1.30992e-06
-4.84165e-08
1.33133e-06
-2.1416e-08
1.40062e-06
-6.92941e-08
1.36354e-06
3.70805e-08
1.426e-06
-6.24549e-08
1.54682e-06
-1.20829e-07
1.87951e-06
-3.32698e-07
2.17906e-06
-2.99561e-07
2.58861e-06
-4.09564e-07
3.17099e-06
-5.82409e-07
3.73267e-06
-5.61808e-07
4.1702e-06
-4.3759e-07
4.50885e-06
-3.38695e-07
4.78363e-06
-2.74795e-07
5.02243e-06
-2.38796e-07
5.23315e-06
-2.10763e-07
5.42141e-06
-1.88293e-07
5.592e-06
-1.70619e-07
5.75412e-06
-1.6211e-07
5.90884e-06
-1.54715e-07
6.05353e-06
-1.44708e-07
6.19299e-06
-1.39473e-07
6.32765e-06
-1.34662e-07
6.45577e-06
-1.28102e-07
6.58294e-06
-1.27157e-07
6.70686e-06
-1.23928e-07
6.82615e-06
-1.19293e-07
6.94096e-06
-1.148e-07
7.05733e-06
-1.1635e-07
7.1726e-06
-1.15276e-07
7.28308e-06
-1.10491e-07
7.38931e-06
-1.06235e-07
7.49364e-06
-1.04319e-07
7.59763e-06
-1.0397e-07
7.70078e-06
-1.03153e-07
7.80204e-06
-1.01267e-07
7.90219e-06
-1.00149e-07
8.00026e-06
-9.80779e-08
8.09761e-06
-9.73576e-08
8.19033e-06
-9.27443e-08
8.28134e-06
-9.10096e-08
8.37439e-06
-9.30484e-08
8.4693e-06
-9.49083e-08
8.56467e-06
-9.538e-08
8.65912e-06
-9.44575e-08
8.75171e-06
-9.26008e-08
8.84259e-06
-9.08804e-08
8.93187e-06
-8.9282e-08
9.02015e-06
-8.82738e-08
9.10774e-06
-8.75654e-08
9.1945e-06
-8.67596e-08
9.27877e-06
-8.42695e-08
9.36442e-06
-8.5647e-08
9.4499e-06
-8.54817e-08
9.53164e-06
-8.17425e-08
9.61001e-06
-7.83658e-08
9.68673e-06
-7.67188e-08
9.76264e-06
-7.5915e-08
9.83849e-06
-7.58295e-08
9.91444e-06
-7.59509e-08
9.99029e-06
-7.58445e-08
1.00658e-05
-7.55095e-08
1.01407e-05
-7.48805e-08
1.02146e-05
-7.39476e-08
1.02875e-05
-7.28854e-08
1.03595e-05
-7.19632e-08
1.0431e-05
-7.1528e-08
1.05024e-05
-7.14043e-08
1.05736e-05
-7.11536e-08
1.0644e-05
-7.04226e-08
1.07131e-05
-6.90528e-08
1.07809e-05
-6.78273e-08
1.08484e-05
-6.74712e-08
1.09162e-05
-6.78072e-08
1.0984e-05
-6.78632e-08
1.10506e-05
-6.66161e-08
1.11162e-05
-6.55149e-08
1.1181e-05
-6.48103e-08
1.12472e-05
-6.61923e-08
1.1311e-05
-6.37895e-08
1.13747e-05
-6.36948e-08
1.14404e-05
-6.57169e-08
1.15117e-05
-7.12911e-08
1.15834e-05
-7.17602e-08
1.16531e-05
-6.97096e-08
1.17214e-05
-6.82731e-08
1.17892e-05
-6.78448e-08
1.1858e-05
-6.87316e-08
-7.46467e-08
3.77053e-05
-1.16424e-05
4.84701e-05
-1.64033e-05
5.28051e-05
-9.02686e-06
5.28766e-05
-4.0656e-06
5.21734e-05
-2.71288e-06
5.12741e-05
-1.97482e-06
5.04007e-05
-1.59593e-06
4.95341e-05
-1.02001e-06
4.86699e-05
-7.86315e-07
4.80197e-05
-1.09052e-06
4.74946e-05
-1.74732e-06
4.7316e-05
-2.18224e-06
4.69221e-05
-2.06025e-06
4.57638e-05
-3.97711e-07
4.33197e-05
2.92365e-06
3.97333e-05
6.48363e-06
3.52673e-05
9.24498e-06
3.03348e-05
1.05101e-05
2.63297e-05
1.17873e-05
2.44353e-05
1.26013e-05
2.27021e-05
1.02182e-05
1.98142e-05
7.46495e-06
1.6733e-05
6.64269e-06
1.43247e-05
5.4476e-06
1.21944e-05
4.18914e-06
1.00749e-05
4.00858e-06
7.99275e-06
4.41977e-06
5.74341e-06
4.76982e-06
3.3609e-06
5.01453e-06
9.67422e-07
4.86532e-06
-1.23761e-06
4.32375e-06
-3.09534e-06
3.90865e-06
-4.64326e-06
3.5684e-06
-6.03046e-06
2.91829e-06
-7.33982e-06
2.21586e-06
-8.72796e-06
2.28896e-06
-1.02495e-05
3.03726e-06
-1.19207e-05
3.89148e-06
-1.36273e-05
4.22847e-06
-1.52801e-05
3.64663e-06
-1.67596e-05
2.55812e-06
-1.79613e-05
1.98762e-06
-1.91215e-05
2.15415e-06
-2.05572e-05
2.8279e-06
-2.22271e-05
3.54993e-06
-2.3948e-05
3.76927e-06
-2.56868e-05
3.42841e-06
-2.72147e-05
2.62818e-06
-2.83948e-05
1.99634e-06
-2.93613e-05
1.76427e-06
-3.02416e-05
1.66732e-06
-3.11822e-05
1.70983e-06
-3.22257e-05
1.72785e-06
-3.33877e-05
2.01132e-06
-3.46854e-05
2.58316e-06
-3.59097e-05
2.89277e-06
-3.69091e-05
2.7678e-06
-3.77849e-05
2.41646e-06
-3.87736e-05
2.1806e-06
-4.00409e-05
2.29603e-06
-4.14665e-05
2.59538e-06
-4.28659e-05
2.73658e-06
-4.40707e-05
2.27699e-06
-4.48408e-05
1.18478e-06
-4.51595e-05
-4.04684e-08
-4.52821e-05
-6.14429e-07
-4.53436e-05
-7.43856e-07
-4.54697e-05
-7.04108e-07
-4.57439e-05
-6.89304e-07
-4.61332e-05
-9.35916e-07
-4.6308e-05
-1.62568e-06
-4.59364e-05
-2.98991e-06
-4.49275e-05
-4.59036e-06
-4.33783e-05
-5.84267e-06
-4.11907e-05
-6.73086e-06
-3.8286e-05
-7.14813e-06
-3.42915e-05
-7.2361e-06
-2.93288e-05
-6.82882e-06
-2.50623e-05
-5.4817e-06
-2.2027e-05
-3.15896e-06
-1.93578e-05
-5.56122e-07
-1.75488e-05
3.69569e-07
-1.71699e-05
1.44708e-06
-1.85626e-05
2.69256e-06
-1.96133e-05
2.24708e-06
-2.05821e-05
1.451e-06
-2.12905e-05
9.78107e-07
-2.18996e-05
8.44467e-07
-2.21319e-05
3.69119e-07
-2.22354e-05
1.44191e-07
-2.21392e-05
-2.26791e-07
-2.21611e-05
-3.83601e-07
-2.21379e-05
-8.55983e-07
-2.21814e-05
-1.14144e-06
-2.21895e-05
-1.89682e-06
-2.20813e-05
-2.59926e-06
-2.17109e-05
-3.4053e-06
-2.05926e-05
-4.21215e-06
-1.8819e-05
-4.52516e-06
-1.59832e-05
-4.11754e-06
-1.25789e-05
-3.42636e-06
-9.40615e-06
-2.74869e-06
-7.60371e-06
-1.13916e-06
-6.86152e-06
-2.02818e-07
-6.44135e-06
3.54665e-07
-6.61911e-06
5.73504e-07
-6.98528e-06
4.89073e-07
-7.57249e-06
7.81116e-07
-8.28002e-06
1.00888e-06
-8.67847e-06
6.99065e-07
-8.7564e-06
3.45059e-07
-8.89648e-06
3.78851e-07
-9.06938e-06
2.35942e-07
-9.28896e-06
9.78615e-08
-9.6107e-06
-9.37352e-08
-9.8406e-06
-3.76176e-07
-1.00423e-05
-6.66063e-07
-9.8449e-06
-6.72565e-07
-9.22218e-06
-5.26997e-07
-8.33197e-06
-6.38508e-07
-7.80256e-06
-1.50286e-07
-7.81038e-06
3.26179e-07
-7.8889e-06
5.7253e-07
-8.12966e-06
6.44612e-07
-8.43459e-06
5.82813e-07
-8.91895e-06
7.85257e-07
-9.32069e-06
6.88026e-07
-9.58351e-06
5.53481e-07
-9.84635e-06
5.87198e-07
-1.01007e-05
5.5542e-07
-1.03727e-05
5.47222e-07
-1.06748e-05
5.71787e-07
-1.09518e-05
5.29808e-07
-1.12067e-05
5.14945e-07
-1.14638e-05
5.15786e-07
-1.17139e-05
5.10699e-07
-1.19649e-05
5.07746e-07
-1.22127e-05
4.92886e-07
-1.24612e-05
4.92524e-07
-1.27007e-05
4.77827e-07
-1.29344e-05
4.70555e-07
-1.3162e-05
4.56979e-07
-1.338e-05
4.3884e-07
-1.35906e-05
4.18533e-07
-1.37908e-05
3.94946e-07
-1.39827e-05
3.78689e-07
-1.41686e-05
3.69504e-07
-1.43463e-05
3.56979e-07
-1.45135e-05
3.38775e-07
-1.46691e-05
3.13601e-07
-1.48145e-05
2.86677e-07
-1.49527e-05
2.71626e-07
-1.50847e-05
2.60683e-07
-1.52073e-05
2.46309e-07
-1.53184e-05
2.25177e-07
-1.54172e-05
2.01918e-07
-1.55084e-05
1.84442e-07
-1.55965e-05
1.70253e-07
-1.56751e-05
1.53622e-07
-1.5744e-05
1.353e-07
-1.58022e-05
1.15164e-07
-1.58502e-05
9.85121e-08
-1.58917e-05
8.44081e-08
-1.5924e-05
6.34219e-08
-1.59437e-05
3.87216e-08
-1.59547e-05
2.1111e-08
-1.59586e-05
9.76074e-09
-1.59549e-05
-5.31447e-09
-1.59416e-05
-2.94123e-08
-1.59146e-05
-5.5575e-08
-1.58773e-05
-7.35375e-08
-1.58337e-05
-8.49016e-08
-1.57824e-05
-9.96515e-08
-1.5723e-05
-1.19136e-07
-1.56526e-05
-1.4311e-07
-1.55713e-05
-1.64629e-07
-1.54802e-05
-1.81783e-07
-1.53805e-05
-1.96019e-07
-1.52723e-05
-2.13329e-07
-1.51569e-05
-2.28988e-07
-1.50357e-05
-2.40546e-07
-1.49076e-05
-2.54543e-07
-1.47712e-05
-2.71908e-07
-1.46264e-05
-2.93577e-07
-1.4469e-05
-3.15953e-07
-1.43033e-05
-3.30818e-07
-1.41307e-05
-3.41671e-07
-1.39527e-05
-3.5022e-07
-1.3772e-05
-3.58891e-07
-1.35869e-05
-3.73911e-07
-1.33929e-05
-3.90611e-07
-1.31896e-05
-4.08493e-07
-1.29756e-05
-4.24861e-07
-1.27545e-05
-4.35417e-07
-1.2529e-05
-4.44692e-07
-1.22999e-05
-4.54455e-07
-1.20675e-05
-4.6675e-07
-1.18259e-05
-4.85717e-07
-1.15728e-05
-5.07644e-07
-1.13117e-05
-5.22609e-07
-1.10465e-05
-5.28133e-07
-1.07775e-05
-5.33415e-07
-1.05006e-05
-5.47249e-07
-1.02138e-05
-5.68645e-07
-9.91896e-06
-5.90268e-07
-9.61809e-06
-6.06277e-07
-9.3115e-06
-6.16176e-07
-8.9983e-06
-6.25668e-07
-8.67537e-06
-6.40407e-07
-8.34373e-06
-6.61013e-07
-8.00521e-06
-6.8065e-07
-7.66485e-06
-6.87746e-07
-7.32387e-06
-6.83236e-07
-6.97702e-06
-6.8712e-07
-6.62226e-06
-7.09128e-07
-6.26092e-06
-7.29622e-07
-5.89738e-06
-7.36452e-07
-5.53388e-06
-7.35862e-07
-5.17352e-06
-7.21093e-07
-4.82012e-06
-7.01854e-07
-4.47146e-06
-6.95112e-07
-4.12571e-06
-6.96276e-07
-3.7809e-06
-6.98307e-07
-3.44246e-06
-6.8645e-07
-3.11277e-06
-6.65453e-07
-2.79386e-06
-6.33574e-07
-2.48801e-06
-6.04974e-07
-2.19515e-06
-5.83666e-07
-1.91253e-06
-5.66515e-07
-1.6383e-06
-5.53353e-07
-1.37361e-06
-5.3501e-07
-1.12019e-06
-5.08548e-07
-8.80723e-07
-4.74211e-07
-6.54633e-07
-4.48277e-07
-4.37871e-07
-4.32709e-07
-2.27579e-07
-4.18437e-07
-2.48086e-08
-4.036e-07
1.69206e-07
-3.87392e-07
3.53313e-07
-3.6777e-07
5.26956e-07
-3.48238e-07
6.90681e-07
-3.30923e-07
8.47698e-07
-3.16045e-07
1.00039e-06
-3.03335e-07
1.14998e-06
-2.94238e-07
1.2956e-06
-2.87754e-07
1.43629e-06
-2.81991e-07
1.57205e-06
-2.75242e-07
1.70374e-06
-2.66779e-07
1.83108e-06
-2.53204e-07
1.95582e-06
-2.4567e-07
2.07986e-06
-2.47645e-07
2.20382e-06
-2.49171e-07
2.32558e-06
-2.45587e-07
2.44467e-06
-2.40996e-07
2.56241e-06
-2.3645e-07
2.68106e-06
-2.35133e-07
2.80085e-06
-2.37362e-07
2.92088e-06
-2.38807e-07
3.0404e-06
-2.39091e-07
3.15864e-06
-2.38598e-07
3.27617e-06
-2.37626e-07
3.39605e-06
-2.39777e-07
3.51905e-06
-2.4418e-07
3.64356e-06
-2.47874e-07
3.76913e-06
-2.51766e-07
3.89522e-06
-2.5362e-07
4.02081e-06
-2.52021e-07
4.14721e-06
-2.51179e-07
4.27524e-06
-2.54284e-07
4.40603e-06
-2.60868e-07
4.53886e-06
-2.65973e-07
4.67257e-06
-2.68191e-07
4.80681e-06
-2.69725e-07
4.94187e-06
-2.70631e-07
5.07812e-06
-2.70769e-07
5.21499e-06
-2.71993e-07
5.35238e-06
-2.7396e-07
5.4902e-06
-2.7571e-07
5.62876e-06
-2.77522e-07
5.76824e-06
-2.7903e-07
5.90835e-06
-2.80235e-07
6.04842e-06
-2.8024e-07
6.18718e-06
-2.7723e-07
6.32512e-06
-2.74677e-07
6.46337e-06
-2.75371e-07
6.6015e-06
-2.75763e-07
6.73859e-06
-2.74046e-07
6.87419e-06
-2.71323e-07
7.00851e-06
-2.68757e-07
7.14155e-06
-2.65504e-07
7.27282e-06
-2.61333e-07
7.40226e-06
-2.5763e-07
7.52967e-06
-2.53981e-07
7.65455e-06
-2.49557e-07
7.77685e-06
-2.44812e-07
7.89675e-06
-2.39587e-07
8.01406e-06
-2.33436e-07
8.12822e-06
-2.26943e-07
8.23845e-06
-2.19767e-07
8.34476e-06
-2.12649e-07
8.44783e-06
-2.06389e-07
8.54766e-06
-1.99218e-07
8.64358e-06
-1.90605e-07
8.73481e-06
-1.81719e-07
8.82118e-06
-1.72808e-07
8.90354e-06
-1.64611e-07
8.98183e-06
-1.55919e-07
9.05519e-06
-1.45951e-07
9.12316e-06
-1.3568e-07
9.18619e-06
-1.26192e-07
9.24449e-06
-1.16786e-07
9.29772e-06
-1.0626e-07
9.34541e-06
-9.46506e-08
9.3872e-06
-8.33407e-08
9.42377e-06
-7.32396e-08
9.4552e-06
-6.30192e-08
9.48124e-06
-5.18996e-08
9.50162e-06
-4.04474e-08
9.51602e-06
-2.88306e-08
9.52448e-06
-1.73655e-08
9.52728e-06
-6.16596e-09
9.52448e-06
5.36077e-09
9.51601e-06
1.71434e-08
9.5017e-06
2.86436e-08
9.48134e-06
4.02522e-08
9.45474e-06
5.23815e-08
9.4221e-06
6.48206e-08
9.38364e-06
7.68991e-08
9.33936e-06
8.8369e-08
9.28901e-06
1.00005e-07
9.23239e-06
1.12146e-07
9.16949e-06
1.25111e-07
9.10037e-06
1.38236e-07
9.02523e-06
1.50292e-07
8.94437e-06
1.61443e-07
8.85769e-06
1.7262e-07
8.7652e-06
1.84041e-07
8.66723e-06
1.95338e-07
8.5638e-06
2.06739e-07
8.45485e-06
2.17977e-07
8.34032e-06
2.28622e-07
8.22065e-06
2.38612e-07
8.09609e-06
2.48295e-07
7.96639e-06
2.58574e-07
7.83206e-06
2.68555e-07
7.69353e-06
2.77296e-07
7.5507e-06
2.85489e-07
7.40364e-06
2.93426e-07
7.2525e-06
3.01483e-07
7.09753e-06
3.09708e-07
6.93896e-06
3.17494e-07
6.77691e-06
3.24075e-07
6.61159e-06
3.29954e-07
6.44326e-06
3.36342e-07
6.27204e-06
3.42666e-07
6.09788e-06
3.48181e-07
5.92088e-06
3.53381e-07
5.74164e-06
3.57947e-07
5.56051e-06
3.62002e-07
5.37754e-06
3.65777e-07
5.19275e-06
3.69341e-07
5.00628e-06
3.72577e-07
4.81851e-06
3.75265e-07
4.62959e-06
3.77864e-07
4.43973e-06
3.80111e-07
4.24909e-06
3.81857e-07
4.0578e-06
3.82857e-07
3.86606e-06
3.83408e-07
3.67412e-06
3.83671e-07
3.48219e-06
3.8386e-07
3.29055e-06
3.83566e-07
3.09941e-06
3.82452e-07
2.90923e-06
3.80335e-07
2.72019e-06
3.77911e-07
2.53236e-06
3.75651e-07
2.34582e-06
3.73031e-07
2.16069e-06
3.69987e-07
1.97749e-06
3.66276e-07
1.79661e-06
3.62249e-07
1.61809e-06
3.57924e-07
1.4419e-06
3.52851e-07
1.26837e-06
3.4695e-07
1.09788e-06
3.40711e-07
9.3044e-07
3.3464e-07
7.66225e-07
3.28249e-07
6.0546e-07
3.21485e-07
4.48389e-07
3.14417e-07
2.95286e-07
3.06418e-07
1.45976e-07
2.98333e-07
6.36993e-10
2.90275e-07
-1.40389e-07
2.82197e-07
-2.76975e-07
2.73569e-07
-4.09536e-07
2.64926e-07
-5.38063e-07
2.56385e-07
-6.62422e-07
2.48014e-07
-7.8214e-07
2.3893e-07
-8.97518e-07
2.30471e-07
-1.00837e-06
2.22033e-07
-1.11515e-06
2.13878e-07
-1.21799e-06
2.05572e-07
-1.31644e-06
1.96537e-07
-1.41038e-06
1.87323e-07
-1.50012e-06
1.78936e-07
-1.5852e-06
1.70184e-07
-1.66589e-06
1.61668e-07
-1.74242e-06
1.53491e-07
-1.81483e-06
1.4457e-07
-1.88334e-06
1.36007e-07
-1.9474e-06
1.26909e-07
-2.0065e-06
1.17819e-07
-2.06105e-06
1.0948e-07
-2.11077e-06
1.00517e-07
-2.15653e-06
9.30357e-08
-2.19856e-06
8.38568e-08
-2.23896e-06
7.86706e-08
-2.27644e-06
7.16537e-08
-2.30663e-06
6.06508e-08
-2.33188e-06
5.40727e-08
-2.34917e-06
4.35053e-08
-2.36596e-06
3.60937e-08
-2.39084e-06
4.14036e-08
-2.41686e-06
3.65201e-08
-2.4365e-06
2.63462e-08
-2.44e-06
1.79999e-08
-2.40889e-06
-1.85495e-08
-2.36599e-06
-3.5738e-08
-2.26941e-06
-9.24235e-08
-2.13895e-06
-1.55167e-07
-2.03355e-06
-1.39146e-07
-1.97343e-06
-1.61014e-07
-1.95747e-06
-1.67946e-07
-1.93381e-06
-1.40566e-07
-1.90381e-06
-1.16098e-07
-1.85626e-06
-1.13594e-07
-1.80693e-06
-9.93152e-08
-1.74534e-06
-1.081e-07
-1.68335e-06
-1.1239e-07
-1.62542e-06
-1.11073e-07
-1.60734e-06
-7.12495e-08
-1.60813e-06
-5.08843e-08
-1.55959e-06
-1.08601e-07
-1.48765e-06
-9.04241e-08
-1.32709e-06
-1.66244e-07
-1.15087e-06
-2.23879e-07
-8.32001e-07
-3.51647e-07
-4.44969e-07
-4.84734e-07
-1.32157e-07
-4.46513e-07
6.33553e-08
-4.93737e-07
1.44847e-07
-4.87043e-07
2.42251e-07
-4.12298e-07
3.51122e-07
-3.77389e-07
4.58235e-07
-2.93972e-07
5.63289e-07
-2.69862e-07
6.64127e-07
-2.35736e-07
7.61073e-07
-2.1969e-07
8.57143e-07
-1.99138e-07
9.52049e-07
-1.82083e-07
1.07342e-06
-2.08945e-07
1.14171e-06
-1.45318e-07
1.17928e-06
-1.1095e-07
1.24525e-06
-1.62395e-07
1.24019e-06
-4.33527e-08
1.3473e-06
-1.2853e-07
1.49646e-06
-2.18458e-07
1.98315e-06
-4.49614e-07
2.36136e-06
-4.40661e-07
2.76291e-06
-5.22376e-07
3.23175e-06
-8.01519e-07
3.69774e-06
-7.65526e-07
4.03799e-06
-7.49762e-07
4.24495e-06
-7.89286e-07
4.42676e-06
-7.43532e-07
4.62388e-06
-6.34641e-07
4.81704e-06
-5.31798e-07
5.00115e-06
-4.58852e-07
5.177e-06
-4.14581e-07
5.34662e-06
-3.80346e-07
5.5084e-06
-3.50036e-07
5.66454e-06
-3.26725e-07
5.81614e-06
-3.13688e-07
5.96233e-06
-3.00883e-07
6.10247e-06
-2.84841e-07
6.23821e-06
-2.75208e-07
6.3703e-06
-2.66748e-07
6.49875e-06
-2.56558e-07
6.62448e-06
-2.529e-07
6.74753e-06
-2.46988e-07
6.86806e-06
-2.39839e-07
6.98612e-06
-2.32882e-07
7.10235e-06
-2.32588e-07
7.21645e-06
-2.29395e-07
7.32809e-06
-2.22152e-07
7.43736e-06
-2.15524e-07
7.54469e-06
-2.11673e-07
7.65002e-06
-2.09305e-07
7.75364e-06
-2.06785e-07
7.85584e-06
-2.0347e-07
7.95711e-06
-2.01422e-07
8.05597e-06
-1.96936e-07
8.15255e-06
-1.93932e-07
8.24809e-06
-1.88281e-07
8.34283e-06
-1.8573e-07
8.43675e-06
-1.86944e-07
8.52994e-06
-1.88077e-07
8.62215e-06
-1.87557e-07
8.71332e-06
-1.85606e-07
8.80409e-06
-1.83364e-07
8.89369e-06
-1.80469e-07
8.98236e-06
-1.77951e-07
9.07022e-06
-1.76134e-07
9.15704e-06
-1.74389e-07
9.24241e-06
-1.72128e-07
9.32663e-06
-1.68491e-07
9.40974e-06
-1.68748e-07
9.4915e-06
-1.67244e-07
9.57211e-06
-1.62365e-07
9.65178e-06
-1.58056e-07
9.73056e-06
-1.55515e-07
9.80858e-06
-1.53937e-07
9.88566e-06
-1.52916e-07
9.96186e-06
-1.52149e-07
1.00374e-05
-1.51398e-07
1.01124e-05
-1.50533e-07
1.01869e-05
-1.49341e-07
1.02606e-05
-1.47686e-07
1.03335e-05
-1.45767e-07
1.04057e-05
-1.44095e-07
1.04772e-05
-1.43018e-07
1.05482e-05
-1.42435e-07
1.06187e-05
-1.41658e-07
1.06881e-05
-1.39818e-07
1.07565e-05
-1.37453e-07
1.08246e-05
-1.35879e-07
1.08927e-05
-1.35573e-07
1.09605e-05
-1.35604e-07
1.10274e-05
-1.34804e-07
1.10934e-05
-1.32605e-07
1.11596e-05
-1.31706e-07
1.12261e-05
-1.31364e-07
1.12923e-05
-1.32355e-07
1.13576e-05
-1.29068e-07
1.14224e-05
-1.28459e-07
1.14882e-05
-1.31531e-07
1.15541e-05
-1.37107e-07
1.16193e-05
-1.36996e-07
1.16838e-05
-1.34246e-07
1.17479e-05
-1.32339e-07
1.18114e-05
-1.3136e-07
1.18744e-05
-1.31733e-07
-1.32917e-07
4.81622e-05
-3.15985e-05
6.73457e-05
-3.55877e-05
7.22493e-05
-1.39311e-05
6.55864e-05
2.59678e-06
5.77152e-05
5.15801e-06
5.19453e-05
3.79486e-06
4.76677e-05
2.68152e-06
4.41037e-05
2.54399e-06
4.04982e-05
2.81925e-06
3.65973e-05
2.81027e-06
3.25933e-05
2.25659e-06
2.89935e-05
1.41741e-06
2.58137e-05
1.11942e-06
2.29971e-05
2.4185e-06
2.04829e-05
5.43779e-06
1.86117e-05
8.35472e-06
1.74941e-05
1.03626e-05
1.66743e-05
1.13299e-05
1.64081e-05
1.20534e-05
1.71264e-05
1.18811e-05
1.7129e-05
1.0214e-05
1.54948e-05
9.09918e-06
1.35813e-05
8.55726e-06
1.1692e-05
7.33668e-06
9.66521e-06
6.21614e-06
7.87945e-06
5.79437e-06
6.286e-06
6.00885e-06
4.42743e-06
6.6284e-06
2.35177e-06
7.09019e-06
2.27717e-07
6.98938e-06
-1.82103e-06
6.3725e-06
-3.3897e-06
5.47607e-06
-4.5938e-06
4.77324e-06
-5.88722e-06
4.212e-06
-7.54718e-06
3.87585e-06
-9.28419e-06
4.02658e-06
-1.07062e-05
4.46365e-06
-1.18809e-05
5.07121e-06
-1.30428e-05
5.39115e-06
-1.44172e-05
5.01299e-06
-1.6041e-05
4.18056e-06
-1.76442e-05
3.59087e-06
-1.91472e-05
3.66005e-06
-2.06277e-05
4.31626e-06
-2.2106e-05
5.02823e-06
-2.36274e-05
5.2907e-06
-2.5304e-05
5.09804e-06
-2.70579e-05
4.37584e-06
-2.86328e-05
3.57085e-06
-2.99749e-05
3.10637e-06
-3.12159e-05
2.90832e-06
-3.24278e-05
2.92248e-06
-3.37112e-05
3.01904e-06
-3.49106e-05
3.22388e-06
-3.58885e-05
3.56109e-06
-3.66031e-05
3.60739e-06
-3.71376e-05
3.29295e-06
-3.77074e-05
2.98008e-06
-3.85279e-05
3.01842e-06
-3.97378e-05
3.50644e-06
-4.11302e-05
3.98808e-06
-4.2422e-05
4.02896e-06
-4.36063e-05
3.44031e-06
-4.46959e-05
2.26488e-06
-4.5578e-05
8.40756e-07
-4.61557e-05
-3.46559e-08
-4.65662e-05
-3.22969e-07
-4.69031e-05
-3.57054e-07
-4.72988e-05
-2.93618e-07
-4.78413e-05
-3.93375e-07
-4.84599e-05
-1.02734e-06
-4.91538e-05
-2.29906e-06
-4.98395e-05
-3.90477e-06