/*--------------------------------*- C++ -*----------------------------------*\
| =========                 |                                                 |
| \\      /  F ield         | OpenFOAM: The Open Source CFD Toolbox           |
|  \\    /   O peration     | Version:  v2006                                 |
|   \\  /    A nd           | Website:  www.openfoam.com                      |
|    \\/     M anipulation  |                                                 |
\*---------------------------------------------------------------------------*/
FoamFile
{
    version     2.0;
    format      ascii;
    class       volScalarField;
    location    "6.4";
    object      k;
}
// * * * * * * * * * * * * * * * * * * * * * * * * * * * * * * * * * * * * * //

dimensions      [0 2 -2 0 0 0 0];


internalField   nonuniform List<scalar> 
33000
(
2.65491e-08
3.32796e-08
3.48969e-08
3.54665e-08
3.64866e-08
3.80992e-08
4.04124e-08
4.35128e-08
4.7368e-08
5.20406e-08
5.77753e-08
6.43919e-08
7.13539e-08
7.62748e-08
7.88259e-08
8.15839e-08
8.60768e-08
9.7024e-08
1.26797e-07
1.9004e-07
2.7058e-07
3.21962e-07
3.4566e-07
3.567e-07
3.60714e-07
3.63589e-07
3.67382e-07
3.71453e-07
3.75171e-07
3.78393e-07
3.8022e-07
3.80794e-07
3.80544e-07
3.79691e-07
3.78697e-07
3.78524e-07
3.79721e-07
3.81202e-07
3.81255e-07
3.7931e-07
3.76544e-07
3.73928e-07
3.7201e-07
3.70704e-07
3.69319e-07
3.67062e-07
3.63645e-07
3.59431e-07
3.55096e-07
3.51331e-07
3.48716e-07
3.47641e-07
3.48234e-07
3.50231e-07
3.5283e-07
3.54752e-07
3.5473e-07
3.5212e-07
3.46937e-07
3.39392e-07
3.29472e-07
3.16951e-07
3.01751e-07
2.84197e-07
2.64836e-07
2.45974e-07
2.30626e-07
2.17755e-07
2.05944e-07
1.94544e-07
1.83899e-07
1.74025e-07
1.65802e-07
1.60556e-07
1.59044e-07
1.61672e-07
1.69022e-07
1.81719e-07
2.0033e-07
2.2198e-07
2.38387e-07
2.48385e-07
2.57688e-07
2.65891e-07
2.71084e-07
2.73119e-07
2.72749e-07
2.70403e-07
2.66155e-07
2.5973e-07
2.50394e-07
2.37881e-07
2.23502e-07
2.09336e-07
1.94291e-07
1.81568e-07
1.72395e-07
1.68723e-07
1.69744e-07
1.77913e-07
1.88971e-07
1.90496e-07
1.91236e-07
1.92052e-07
1.94254e-07
1.9544e-07
1.9455e-07
1.92077e-07
1.88955e-07
1.85801e-07
1.82647e-07
1.78937e-07
1.73788e-07
1.6665e-07
1.59588e-07
1.55218e-07
1.54477e-07
1.60687e-07
1.67539e-07
1.67632e-07
1.67548e-07
1.67626e-07
1.68436e-07
1.6952e-07
1.70334e-07
1.70793e-07
1.70987e-07
1.7106e-07
1.71174e-07
1.71342e-07
1.71469e-07
1.71496e-07
1.71432e-07
1.71306e-07
1.71143e-07
1.70975e-07
1.70834e-07
1.70721e-07
1.7061e-07
1.7048e-07
1.70325e-07
1.70149e-07
1.69959e-07
1.69736e-07
1.69446e-07
1.6908e-07
1.68683e-07
1.68309e-07
1.6797e-07
1.67625e-07
1.67213e-07
1.66721e-07
1.6621e-07
1.65734e-07
1.65284e-07
1.64816e-07
1.64304e-07
1.63755e-07
1.63187e-07
1.62602e-07
1.62005e-07
1.61407e-07
1.60823e-07
1.60232e-07
1.59588e-07
1.58899e-07
1.5822e-07
1.57564e-07
1.56859e-07
1.56064e-07
1.55235e-07
1.54449e-07
1.5371e-07
1.52949e-07
1.52113e-07
1.51242e-07
1.50425e-07
1.49693e-07
1.48993e-07
1.48297e-07
1.47648e-07
1.47071e-07
1.46523e-07
1.45942e-07
1.45343e-07
1.44814e-07
1.44407e-07
1.44083e-07
1.43763e-07
1.43405e-07
1.4301e-07
1.4261e-07
1.42226e-07
1.41877e-07
1.41516e-07
1.41075e-07
1.40546e-07
1.39921e-07
1.39226e-07
1.38553e-07
1.37945e-07
1.37358e-07
1.36672e-07
1.35847e-07
1.34916e-07
1.33963e-07
1.33069e-07
1.32215e-07
1.31324e-07
1.30352e-07
1.29343e-07
1.28429e-07
1.27668e-07
1.26999e-07
1.26302e-07
1.2566e-07
1.25186e-07
1.24887e-07
1.24766e-07
1.24728e-07
1.24682e-07
1.24654e-07
1.2471e-07
1.24899e-07
1.25206e-07
1.25584e-07
1.25931e-07
1.26245e-07
1.26556e-07
1.2688e-07
1.27262e-07
1.27696e-07
1.28119e-07
1.28457e-07
1.28749e-07
1.29022e-07
1.29276e-07
1.29523e-07
1.29748e-07
1.29911e-07
1.30015e-07
1.30077e-07
1.30086e-07
1.3003e-07
1.29909e-07
1.29751e-07
1.2958e-07
1.2941e-07
1.29217e-07
1.2893e-07
1.28585e-07
1.28239e-07
1.27891e-07
1.27529e-07
1.27145e-07
1.26718e-07
1.26256e-07
1.25775e-07
1.25279e-07
1.24772e-07
1.24249e-07
1.23699e-07
1.23115e-07
1.22507e-07
1.21891e-07
1.21279e-07
1.20663e-07
1.20016e-07
1.1932e-07
1.18592e-07
1.17857e-07
1.17121e-07
1.16381e-07
1.1563e-07
1.1485e-07
1.14034e-07
1.13193e-07
1.12332e-07
1.11452e-07
1.10552e-07
1.09634e-07
1.08705e-07
1.07763e-07
1.06785e-07
1.05769e-07
1.04727e-07
1.03666e-07
1.02589e-07
1.01491e-07
1.0037e-07
9.92225e-08
9.80448e-08
9.68428e-08
9.5623e-08
9.43895e-08
9.31388e-08
9.18598e-08
9.05489e-08
8.92087e-08
8.78386e-08
8.64413e-08
8.50145e-08
8.35488e-08
8.20354e-08
8.04598e-08
7.8805e-08
7.71067e-08
7.54163e-08
7.37679e-08
7.2179e-08
7.06602e-08
6.92132e-08
6.7833e-08
6.65158e-08
6.52654e-08
6.40888e-08
6.29856e-08
6.19513e-08
6.09858e-08
6.00903e-08
5.92668e-08
5.85134e-08
5.78253e-08
5.72035e-08
5.66512e-08
5.61671e-08
5.57418e-08
5.53657e-08
5.50362e-08
5.47498e-08
5.45016e-08
5.42851e-08
5.40954e-08
5.39332e-08
5.37946e-08
5.36706e-08
5.35482e-08
5.34175e-08
5.32708e-08
5.31037e-08
5.29177e-08
5.27157e-08
5.25005e-08
5.22743e-08
5.20343e-08
5.17791e-08
5.15113e-08
5.12342e-08
5.09493e-08
5.06546e-08
5.03479e-08
5.00283e-08
4.96985e-08
4.93601e-08
4.90109e-08
4.86504e-08
4.82814e-08
4.79052e-08
4.75219e-08
4.71312e-08
4.67341e-08
4.63306e-08
4.59211e-08
4.55066e-08
4.50872e-08
4.46683e-08
4.42547e-08
4.38478e-08
4.34486e-08
4.30582e-08
4.26768e-08
4.23035e-08
4.19384e-08
4.15816e-08
4.12339e-08
4.08948e-08
4.05639e-08
4.02416e-08
3.99283e-08
3.96243e-08
3.93278e-08
3.90387e-08
3.87574e-08
3.84847e-08
3.82208e-08
3.79647e-08
3.77176e-08
3.74776e-08
3.72442e-08
3.70184e-08
3.67988e-08
3.65785e-08
3.63516e-08
3.61187e-08
3.58799e-08
3.56362e-08
3.53865e-08
3.5134e-08
3.48757e-08
3.46131e-08
3.43449e-08
3.40726e-08
3.37975e-08
3.35201e-08
3.32404e-08
3.2959e-08
3.26751e-08
3.23898e-08
3.21049e-08
3.18195e-08
3.15368e-08
3.12509e-08
3.09674e-08
3.0675e-08
3.03905e-08
3.01036e-08
2.98129e-08
2.95306e-08
2.9228e-08
2.89073e-08
2.86289e-08
2.83269e-08
2.80408e-08
2.78054e-08
2.73686e-08
2.69365e-08
2.67938e-08
2.62912e-08
2.61891e-08
2.59404e-08
2.67625e-08
2.71093e-08
2.7554e-08
2.77196e-08
2.78651e-08
2.78481e-08
2.78107e-08
2.77277e-08
2.76693e-08
2.75755e-08
2.74812e-08
2.74748e-08
2.72229e-08
2.69116e-08
2.69091e-08
2.65455e-08
2.6516e-08
2.61872e-08
2.72331e-08
2.7788e-08
2.85702e-08
2.90167e-08
2.93637e-08
2.95605e-08
2.97139e-08
2.97973e-08
2.98546e-08
2.97585e-08
2.97108e-08
2.9616e-08
2.94823e-08
2.95181e-08
2.93575e-08
2.87577e-08
2.84414e-08
2.7972e-08
2.75611e-08
2.7682e-08
2.82863e-08
2.99367e-08
3.2883e-08
3.60187e-08
3.90269e-08
4.16528e-08
4.38027e-08
4.55067e-08
4.68577e-08
4.792e-08
4.87441e-08
4.93655e-08
4.9848e-08
5.02335e-08
5.05265e-08
5.07551e-08
5.09373e-08
5.10643e-08
5.11623e-08
5.12382e-08
5.12894e-08
5.13051e-08
5.13099e-08
5.1312e-08
5.13012e-08
5.12725e-08
5.12293e-08
5.11778e-08
5.11207e-08
5.10555e-08
5.09852e-08
5.0906e-08
5.08276e-08
5.07345e-08
5.06233e-08
5.05041e-08
5.03823e-08
5.02587e-08
5.01323e-08
5.00018e-08
4.98669e-08
4.97277e-08
4.95861e-08
4.94437e-08
4.93031e-08
4.91551e-08
4.90109e-08
4.8875e-08
4.87389e-08
4.85979e-08
4.84528e-08
4.83039e-08
4.8152e-08
4.79979e-08
4.78421e-08
4.76855e-08
4.75289e-08
4.73727e-08
4.72162e-08
4.70585e-08
4.68996e-08
4.67407e-08
4.65837e-08
4.64301e-08
4.62789e-08
4.61281e-08
4.5977e-08
4.58278e-08
4.56828e-08
4.554e-08
4.53976e-08
4.52529e-08
4.51134e-08
4.49711e-08
4.48247e-08
4.46736e-08
4.45331e-08
4.43935e-08
4.42858e-08
4.40859e-08
4.38178e-08
4.27943e-08
1.70734e-08
1.922e-08
2.0075e-08
2.08696e-08
2.17606e-08
2.30498e-08
2.58137e-08
3.16652e-08
4.25822e-08
5.7293e-08
7.5532e-08
9.7569e-08
1.2336e-07
1.52514e-07
1.75021e-07
1.83993e-07
1.86422e-07
1.9047e-07
2.01141e-07
2.25127e-07
2.34615e-07
2.08219e-07
1.76742e-07
1.47056e-07
1.16034e-07
1.03399e-07
1.05771e-07
1.08393e-07
1.09258e-07
1.04924e-07
9.6529e-08
9.02506e-08
8.42346e-08
7.35687e-08
6.30294e-08
6.23659e-08
7.12761e-08
8.09545e-08
8.34656e-08
7.53006e-08
6.19612e-08
5.45077e-08
5.52402e-08
6.05052e-08
6.60496e-08
6.66936e-08
6.10287e-08
5.2303e-08
4.57281e-08
4.24895e-08
4.09835e-08
4.0429e-08
4.06708e-08
4.35621e-08
4.8857e-08
5.33392e-08
5.42739e-08
5.16298e-08
4.77825e-08
4.53947e-08
4.50747e-08
4.47298e-08
4.19851e-08
3.76889e-08
3.52871e-08
3.65258e-08
3.94873e-08
4.37627e-08
4.9169e-08
5.52558e-08
6.11732e-08
6.56885e-08
6.85177e-08
7.15016e-08
7.55518e-08
8.1215e-08
8.88457e-08
9.91399e-08
1.13344e-07
1.3202e-07
1.53961e-07
1.67275e-07
1.60593e-07
1.41989e-07
1.23575e-07
1.00629e-07
8.01008e-08
5.90186e-08
3.95574e-08
2.98104e-08
2.77234e-08
2.941e-08
3.32437e-08
3.87032e-08
4.51449e-08
5.20456e-08
5.82579e-08
6.18823e-08
6.11815e-08
5.83246e-08
5.36547e-08
4.8772e-08
4.36144e-08
3.47956e-08
3.13325e-08
2.39783e-08
1.90655e-08
1.80094e-08
1.80692e-08
1.77641e-08
1.75072e-08
1.79405e-08
1.82512e-08
1.95311e-08
2.04421e-08
2.05629e-08
1.99876e-08
1.94732e-08
1.94822e-08
2.01405e-08
2.03933e-08
1.96849e-08
2.04505e-08
1.88599e-08
1.7527e-08
1.75078e-08
1.71644e-08
1.7067e-08
1.71654e-08
1.68769e-08
1.66552e-08
1.65884e-08
1.64627e-08
1.6506e-08
1.65168e-08
1.65346e-08
1.65202e-08
1.64676e-08
1.64477e-08
1.63972e-08
1.63919e-08
1.63612e-08
1.63111e-08
1.62436e-08
1.61641e-08
1.60992e-08
1.60783e-08
1.60804e-08
1.60806e-08
1.60525e-08
1.59943e-08
1.59638e-08
1.59722e-08
1.59896e-08
1.6002e-08
1.60022e-08
1.60063e-08
1.60154e-08
1.60241e-08
1.60336e-08
1.60446e-08
1.60617e-08
1.60852e-08
1.61014e-08
1.61123e-08
1.61298e-08
1.61514e-08
1.61715e-08
1.61862e-08
1.61953e-08
1.62047e-08
1.62167e-08
1.62266e-08
1.6227e-08
1.6217e-08
1.62046e-08
1.61969e-08
1.61918e-08
1.61817e-08
1.61638e-08
1.61418e-08
1.61177e-08
1.60854e-08
1.60392e-08
1.59878e-08
1.59452e-08
1.59124e-08
1.58773e-08
1.58287e-08
1.57668e-08
1.57009e-08
1.5641e-08
1.55902e-08
1.55416e-08
1.54854e-08
1.5415e-08
1.53322e-08
1.52458e-08
1.51689e-08
1.51096e-08
1.50606e-08
1.50048e-08
1.49296e-08
1.48383e-08
1.47475e-08
1.46708e-08
1.46071e-08
1.45442e-08
1.44699e-08
1.43854e-08
1.4308e-08
1.42477e-08
1.41877e-08
1.4107e-08
1.4008e-08
1.39151e-08
1.3848e-08
1.38016e-08
1.37525e-08
1.36788e-08
1.35825e-08
1.34852e-08
1.3407e-08
1.33534e-08
1.33094e-08
1.32565e-08
1.31883e-08
1.31103e-08
1.30342e-08
1.29741e-08
1.2934e-08
1.28992e-08
1.28551e-08
1.28024e-08
1.27475e-08
1.26978e-08
1.26598e-08
1.2634e-08
1.26115e-08
1.2586e-08
1.25625e-08
1.25441e-08
1.25254e-08
1.25014e-08
1.24758e-08
1.24566e-08
1.24537e-08
1.24605e-08
1.24541e-08
1.2432e-08
1.24098e-08
1.23978e-08
1.23957e-08
1.23948e-08
1.23881e-08
1.23755e-08
1.23597e-08
1.23448e-08
1.23345e-08
1.23271e-08
1.23179e-08
1.2303e-08
1.2283e-08
1.22662e-08
1.22606e-08
1.22653e-08
1.22696e-08
1.22582e-08
1.22337e-08
1.22106e-08
1.21967e-08
1.2194e-08
1.22005e-08
1.2205e-08
1.21989e-08
1.21864e-08
1.21742e-08
1.21642e-08
1.21549e-08
1.21451e-08
1.21408e-08
1.2147e-08
1.21522e-08
1.21438e-08
1.21272e-08
1.21133e-08
1.21045e-08
1.21e-08
1.21003e-08
1.21006e-08
1.20932e-08
1.20783e-08
1.20624e-08
1.20486e-08
1.20397e-08
1.20351e-08
1.20252e-08
1.20089e-08
1.19899e-08
1.19679e-08
1.19481e-08
1.19326e-08
1.19124e-08
1.18858e-08
1.18556e-08
1.18258e-08
1.17959e-08
1.17632e-08
1.17271e-08
1.16897e-08
1.16574e-08
1.16307e-08
1.16035e-08
1.15703e-08
1.15347e-08
1.15042e-08
1.14793e-08
1.14543e-08
1.14294e-08
1.14055e-08
1.13852e-08
1.13699e-08
1.13545e-08
1.13376e-08
1.13232e-08
1.13146e-08
1.13103e-08
1.1304e-08
1.12956e-08
1.12896e-08
1.12891e-08
1.12946e-08
1.12983e-08
1.12955e-08
1.12884e-08
1.12814e-08
1.12763e-08
1.12721e-08
1.12679e-08
1.12596e-08
1.12468e-08
1.12326e-08
1.12184e-08
1.12071e-08
1.11955e-08
1.11782e-08
1.11574e-08
1.11369e-08
1.11193e-08
1.11039e-08
1.10867e-08
1.10651e-08
1.10427e-08
1.10247e-08
1.10074e-08
1.0987e-08
1.09666e-08
1.09472e-08
1.09282e-08
1.09089e-08
1.08901e-08
1.08716e-08
1.08534e-08
1.08364e-08
1.08195e-08
1.08022e-08
1.07839e-08
1.0766e-08
1.07487e-08
1.07325e-08
1.07164e-08
1.06991e-08
1.06811e-08
1.06638e-08
1.06478e-08
1.06317e-08
1.06156e-08
1.05998e-08
1.05848e-08
1.05698e-08
1.05538e-08
1.05372e-08
1.05212e-08
1.05063e-08
1.04919e-08
1.04777e-08
1.04639e-08
1.04493e-08
1.04348e-08
1.04212e-08
1.04089e-08
1.03959e-08
1.03826e-08
1.037e-08
1.03581e-08
1.03462e-08
1.0335e-08
1.03245e-08
1.03141e-08
1.03034e-08
1.02927e-08
1.02822e-08
1.02726e-08
1.02636e-08
1.02546e-08
1.02461e-08
1.02366e-08
1.02275e-08
1.02188e-08
1.02117e-08
1.02046e-08
1.01984e-08
1.01919e-08
1.01844e-08
1.01767e-08
1.01719e-08
1.01704e-08
1.01693e-08
1.01716e-08
1.0165e-08
1.01528e-08
1.01589e-08
1.0201e-08
1.0245e-08
1.02952e-08
1.02793e-08
1.04021e-08
1.04111e-08
1.0366e-08
1.02726e-08
1.02328e-08
1.02426e-08
1.01954e-08
1.01823e-08
1.01584e-08
1.01451e-08
1.01337e-08
1.01245e-08
1.0094e-08
1.00997e-08
1.01763e-08
1.02341e-08
1.03135e-08
1.02817e-08
1.0327e-08
1.03356e-08
1.03176e-08
1.02906e-08
1.02666e-08
1.02693e-08
1.02189e-08
1.01836e-08
1.0146e-08
1.01393e-08
1.01395e-08
1.01487e-08
1.01386e-08
1.01478e-08
1.01158e-08
1.01892e-08
1.02374e-08
1.0357e-08
1.06339e-08
1.06861e-08
1.06988e-08
1.06719e-08
1.06786e-08
1.07026e-08
1.07459e-08
1.0816e-08
1.08538e-08
1.08595e-08
1.0799e-08
1.06915e-08
1.05824e-08
1.04926e-08
1.0425e-08
1.03737e-08
1.0335e-08
1.03058e-08
1.02836e-08
1.0266e-08
1.02526e-08
1.02431e-08
1.02362e-08
1.02316e-08
1.0229e-08
1.02278e-08
1.02271e-08
1.02272e-08
1.02282e-08
1.023e-08
1.02319e-08
1.02341e-08
1.02361e-08
1.02382e-08
1.02404e-08
1.02428e-08
1.02452e-08
1.02476e-08
1.02504e-08
1.02516e-08
1.02513e-08
1.02506e-08
1.02504e-08
1.02507e-08
1.02518e-08
1.0253e-08
1.02541e-08
1.02551e-08
1.02562e-08
1.02573e-08
1.02583e-08
1.02585e-08
1.02598e-08
1.02628e-08
1.02657e-08
1.02673e-08
1.02676e-08
1.02669e-08
1.02657e-08
1.02645e-08
1.02636e-08
1.02634e-08
1.02637e-08
1.02643e-08
1.02644e-08
1.02638e-08
1.02627e-08
1.02619e-08
1.02621e-08
1.02631e-08
1.02639e-08
1.02635e-08
1.02621e-08
1.02611e-08
1.02612e-08
1.02615e-08
1.02606e-08
1.0259e-08
1.02585e-08
1.02569e-08
1.02525e-08
1.02469e-08
1.02456e-08
1.02554e-08
1.0274e-08
1.03456e-08
1.04092e-08
1.04441e-08
1.12761e-08
1.19953e-08
1.29864e-08
1.40476e-08
1.52057e-08
1.70674e-08
2.05563e-08
2.7018e-08
3.80967e-08
5.51237e-08
7.80713e-08
1.04174e-07
1.28396e-07
1.4741e-07
1.57433e-07
1.6707e-07
1.73439e-07
1.68777e-07
1.6876e-07
1.74928e-07
1.49872e-07
1.14911e-07
8.8505e-08
6.70614e-08
5.12056e-08
4.45208e-08
4.3284e-08
4.3095e-08
4.26964e-08
4.04915e-08
3.68662e-08
3.36757e-08
3.07613e-08
2.73989e-08
2.47746e-08
2.44537e-08
2.60363e-08
2.80421e-08
2.85126e-08
2.64064e-08
2.3235e-08
2.12928e-08
2.1047e-08
2.19369e-08
2.30101e-08
2.30951e-08
2.1833e-08
1.98858e-08
1.83051e-08
1.74001e-08
1.69504e-08
1.68277e-08
1.694e-08
1.74015e-08
1.81312e-08
1.86886e-08
1.87477e-08
1.84168e-08
1.81678e-08
1.8314e-08
1.8641e-08
1.88242e-08
1.8618e-08
1.82108e-08
1.80571e-08
1.84479e-08
1.9227e-08
2.04794e-08
2.21895e-08
2.41895e-08
2.61165e-08
2.79596e-08
2.99145e-08
3.22547e-08
3.52097e-08
3.89587e-08
4.35884e-08
4.91453e-08
5.5652e-08
6.31862e-08
7.21976e-08
8.33721e-08
9.6365e-08
1.06093e-07
1.07035e-07
1.00128e-07
8.1938e-08
6.24294e-08
4.55851e-08
3.22499e-08
2.45743e-08
1.99124e-08
1.82036e-08
1.91149e-08
2.15389e-08
2.4202e-08
2.64792e-08
2.75379e-08
2.7205e-08
2.58329e-08
2.38056e-08
2.16648e-08
1.96895e-08
1.77977e-08
1.62249e-08
1.48822e-08
1.36398e-08
1.27931e-08
1.21447e-08
1.15645e-08
1.11583e-08
1.10254e-08
1.09858e-08
1.10601e-08
1.13036e-08
1.14587e-08
1.15187e-08
1.14759e-08
1.13559e-08
1.12185e-08
1.11256e-08
1.11108e-08
1.11352e-08
1.10661e-08
1.09631e-08
1.09393e-08
1.08172e-08
1.07359e-08
1.07267e-08
1.07016e-08
1.06902e-08
1.06911e-08
1.06799e-08
1.06755e-08
1.06785e-08
1.06829e-08
1.06867e-08
1.06879e-08
1.06918e-08
1.06908e-08
1.06919e-08
1.06921e-08
1.06907e-08
1.06889e-08
1.06863e-08
1.06847e-08
1.06862e-08
1.06891e-08
1.06912e-08
1.06916e-08
1.06911e-08
1.06921e-08
1.06952e-08
1.06994e-08
1.07032e-08
1.07059e-08
1.07086e-08
1.07122e-08
1.0716e-08
1.07194e-08
1.07224e-08
1.07255e-08
1.07291e-08
1.07326e-08
1.07346e-08
1.07359e-08
1.07381e-08
1.07408e-08
1.07419e-08
1.07411e-08
1.07401e-08
1.07396e-08
1.07385e-08
1.07353e-08
1.07298e-08
1.07234e-08
1.07174e-08
1.07113e-08
1.0704e-08
1.06956e-08
1.06868e-08
1.06769e-08
1.06648e-08
1.06501e-08
1.06348e-08
1.0621e-08
1.06092e-08
1.0598e-08
1.05857e-08
1.05716e-08
1.05561e-08
1.05408e-08
1.05266e-08
1.05135e-08
1.05009e-08
1.04877e-08
1.04731e-08
1.04575e-08
1.04429e-08
1.04309e-08
1.0421e-08
1.04105e-08
1.03979e-08
1.0384e-08
1.03709e-08
1.03597e-08
1.03499e-08
1.03399e-08
1.03291e-08
1.03181e-08
1.03086e-08
1.03008e-08
1.02927e-08
1.02826e-08
1.02715e-08
1.02615e-08
1.02541e-08
1.02486e-08
1.02432e-08
1.02361e-08
1.02273e-08
1.02185e-08
1.02113e-08
1.02062e-08
1.02021e-08
1.01977e-08
1.01925e-08
1.01867e-08
1.01811e-08
1.01765e-08
1.01734e-08
1.01708e-08
1.01679e-08
1.01644e-08
1.01607e-08
1.01575e-08
1.01552e-08
1.01539e-08
1.0153e-08
1.01519e-08
1.01507e-08
1.01495e-08
1.01484e-08
1.01472e-08
1.01462e-08
1.01457e-08
1.01459e-08
1.01466e-08
1.01466e-08
1.01458e-08
1.0145e-08
1.01449e-08
1.01453e-08
1.01456e-08
1.01455e-08
1.01452e-08
1.01448e-08
1.01446e-08
1.01447e-08
1.01446e-08
1.01442e-08
1.01434e-08
1.01425e-08
1.01419e-08
1.0142e-08
1.01426e-08
1.01429e-08
1.01423e-08
1.01409e-08
1.01396e-08
1.01389e-08
1.01389e-08
1.01392e-08
1.01394e-08
1.01391e-08
1.01385e-08
1.01379e-08
1.01373e-08
1.01367e-08
1.01361e-08
1.0136e-08
1.01365e-08
1.01368e-08
1.01363e-08
1.01353e-08
1.01346e-08
1.01342e-08
1.01341e-08
1.01342e-08
1.01343e-08
1.0134e-08
1.01333e-08
1.01326e-08
1.01321e-08
1.01318e-08
1.01317e-08
1.01314e-08
1.01308e-08
1.01302e-08
1.01292e-08
1.01283e-08
1.01276e-08
1.01269e-08
1.01259e-08
1.01245e-08
1.01231e-08
1.01218e-08
1.01204e-08
1.01188e-08
1.0117e-08
1.01155e-08
1.01142e-08
1.01129e-08
1.01111e-08
1.01092e-08
1.01074e-08
1.0106e-08
1.01046e-08
1.01033e-08
1.0102e-08
1.01008e-08
1.00998e-08
1.00989e-08
1.00979e-08
1.00971e-08
1.00965e-08
1.0096e-08
1.00955e-08
1.00948e-08
1.00943e-08
1.00941e-08
1.00942e-08
1.00941e-08
1.00937e-08
1.0093e-08
1.00923e-08
1.00917e-08
1.00911e-08
1.00905e-08
1.00897e-08
1.00888e-08
1.00877e-08
1.00867e-08
1.00859e-08
1.0085e-08
1.00838e-08
1.00825e-08
1.00813e-08
1.00803e-08
1.00794e-08
1.00783e-08
1.00772e-08
1.0076e-08
1.00751e-08
1.00742e-08
1.00732e-08
1.00722e-08
1.00713e-08
1.00704e-08
1.00695e-08
1.00686e-08
1.00678e-08
1.0067e-08
1.00662e-08
1.00655e-08
1.00647e-08
1.0064e-08
1.00632e-08
1.00625e-08
1.00619e-08
1.00612e-08
1.00606e-08
1.00598e-08
1.00592e-08
1.00586e-08
1.0058e-08
1.00574e-08
1.00569e-08
1.00563e-08
1.00558e-08
1.00552e-08
1.00546e-08
1.0054e-08
1.00535e-08
1.0053e-08
1.00525e-08
1.0052e-08
1.00515e-08
1.0051e-08
1.00506e-08
1.00501e-08
1.00497e-08
1.00493e-08
1.00489e-08
1.00485e-08
1.00481e-08
1.00477e-08
1.00473e-08
1.0047e-08
1.00466e-08
1.00462e-08
1.00458e-08
1.00455e-08
1.00452e-08
1.00449e-08
1.00446e-08
1.00441e-08
1.00439e-08
1.00437e-08
1.00433e-08
1.00431e-08
1.00428e-08
1.00428e-08
1.00429e-08
1.00429e-08
1.00433e-08
1.0043e-08
1.0042e-08
1.00424e-08
1.00433e-08
1.0044e-08
1.00444e-08
1.00431e-08
1.00432e-08
1.00431e-08
1.00428e-08
1.00435e-08
1.00444e-08
1.00448e-08
1.00454e-08
1.0046e-08
1.00447e-08
1.0043e-08
1.00417e-08
1.004e-08
1.00403e-08
1.00403e-08
1.00404e-08
1.00406e-08
1.00408e-08
1.00404e-08
1.00406e-08
1.00408e-08
1.00407e-08
1.0041e-08
1.00413e-08
1.00415e-08
1.00417e-08
1.0042e-08
1.00415e-08
1.00408e-08
1.004e-08
1.00395e-08
1.00392e-08
1.00389e-08
1.00385e-08
1.00389e-08
1.00394e-08
1.00405e-08
1.00453e-08
1.00499e-08
1.00527e-08
1.00586e-08
1.00608e-08
1.00599e-08
1.00594e-08
1.00617e-08
1.0067e-08
1.00753e-08
1.00838e-08
1.00873e-08
1.00831e-08
1.00739e-08
1.00639e-08
1.00554e-08
1.00491e-08
1.00447e-08
1.00417e-08
1.00395e-08
1.0038e-08
1.00368e-08
1.00359e-08
1.00352e-08
1.00347e-08
1.00344e-08
1.00342e-08
1.00341e-08
1.00342e-08
1.00344e-08
1.00345e-08
1.00347e-08
1.0035e-08
1.00352e-08
1.00354e-08
1.00355e-08
1.00357e-08
1.00358e-08
1.00359e-08
1.00361e-08
1.00362e-08
1.00363e-08
1.00362e-08
1.00361e-08
1.00361e-08
1.00361e-08
1.00361e-08
1.00362e-08
1.00363e-08
1.00364e-08
1.00365e-08
1.00366e-08
1.00367e-08
1.00367e-08
1.00367e-08
1.00368e-08
1.00369e-08
1.0037e-08
1.00369e-08
1.00369e-08
1.00368e-08
1.00368e-08
1.00368e-08
1.00368e-08
1.00368e-08
1.00369e-08
1.00369e-08
1.00367e-08
1.00366e-08
1.00364e-08
1.00364e-08
1.00364e-08
1.00365e-08
1.00365e-08
1.00365e-08
1.00364e-08
1.00364e-08
1.00364e-08
1.00364e-08
1.00363e-08
1.00362e-08
1.00361e-08
1.0036e-08
1.00359e-08
1.00357e-08
1.00357e-08
1.00367e-08
1.0038e-08
1.00397e-08
1.0042e-08
1.00427e-08
1.03575e-08
1.06367e-08
1.10496e-08
1.15844e-08
1.21845e-08
1.30032e-08
1.4525e-08
1.74045e-08
2.23383e-08
2.9624e-08
3.86723e-08
4.92162e-08
6.3534e-08
8.29724e-08
1.00124e-07
1.0312e-07
1.06318e-07
1.05542e-07
1.05394e-07
9.92183e-08
7.63768e-08
5.6838e-08
4.35026e-08
3.3196e-08
2.64654e-08
2.33428e-08
2.23305e-08
2.21534e-08
2.19658e-08
2.10795e-08
1.96169e-08
1.8093e-08
1.67999e-08
1.57341e-08
1.50522e-08
1.48818e-08
1.50634e-08
1.53577e-08
1.5387e-08
1.49067e-08
1.41879e-08
1.36786e-08
1.35367e-08
1.36692e-08
1.38531e-08
1.38415e-08
1.3554e-08
1.30833e-08
1.26369e-08
1.23302e-08
1.21537e-08
1.20811e-08
1.20831e-08
1.21489e-08
1.22549e-08
1.23279e-08
1.23322e-08
1.23244e-08
1.23871e-08
1.25452e-08
1.27313e-08
1.28461e-08
1.28369e-08
1.27449e-08
1.26801e-08
1.27654e-08
1.30454e-08
1.34511e-08
1.40012e-08
1.47084e-08
1.55932e-08
1.66883e-08
1.80207e-08
1.96298e-08
2.15781e-08
2.39246e-08
2.66548e-08
2.96677e-08
3.27842e-08
3.58099e-08
3.85858e-08
4.10887e-08
4.33476e-08
4.54705e-08
4.74454e-08
4.89453e-08
4.90941e-08
4.63537e-08
4.1719e-08
3.57548e-08
2.90909e-08
2.33295e-08
1.93121e-08
1.6741e-08
1.54518e-08
1.51786e-08
1.55798e-08
1.61165e-08
1.63588e-08
1.62183e-08
1.56725e-08
1.4932e-08
1.41881e-08
1.35207e-08
1.30021e-08
1.26304e-08
1.23268e-08
1.2082e-08
1.18653e-08
1.15939e-08
1.12791e-08
1.09724e-08
1.06973e-08
1.0488e-08
1.03582e-08
1.02912e-08
1.02631e-08
1.02516e-08
1.02475e-08
1.02425e-08
1.02352e-08
1.02275e-08
1.02217e-08
1.02207e-08
1.02249e-08
1.02213e-08
1.02046e-08
1.01855e-08
1.01755e-08
1.01583e-08
1.01454e-08
1.01401e-08
1.01349e-08
1.01333e-08
1.01333e-08
1.01336e-08
1.01333e-08
1.01326e-08
1.01328e-08
1.01322e-08
1.01323e-08
1.01323e-08
1.01321e-08
1.01318e-08
1.01314e-08
1.01313e-08
1.01316e-08
1.01319e-08
1.0132e-08
1.01319e-08
1.01318e-08
1.01321e-08
1.01326e-08
1.01331e-08
1.01334e-08
1.01336e-08
1.01339e-08
1.01344e-08
1.01348e-08
1.01352e-08
1.01354e-08
1.01356e-08
1.01357e-08
1.01358e-08
1.01357e-08
1.01357e-08
1.01356e-08
1.01355e-08
1.01351e-08
1.01345e-08
1.01339e-08
1.01333e-08
1.01327e-08
1.01318e-08
1.01306e-08
1.01293e-08
1.0128e-08
1.01266e-08
1.01253e-08
1.01238e-08
1.01223e-08
1.01205e-08
1.01185e-08
1.01163e-08
1.0114e-08
1.01118e-08
1.01099e-08
1.01081e-08
1.01063e-08
1.01042e-08
1.0102e-08
1.00998e-08
1.00977e-08
1.00957e-08
1.00939e-08
1.00921e-08
1.00902e-08
1.00883e-08
1.00864e-08
1.00847e-08
1.00833e-08
1.00819e-08
1.00804e-08
1.00788e-08
1.00772e-08
1.00758e-08
1.00746e-08
1.00733e-08
1.00721e-08
1.00708e-08
1.00697e-08
1.00687e-08
1.00677e-08
1.00666e-08
1.00654e-08
1.00644e-08
1.00635e-08
1.00628e-08
1.00621e-08
1.00613e-08
1.00604e-08
1.00596e-08
1.00588e-08
1.00582e-08
1.00577e-08
1.00571e-08
1.00566e-08
1.0056e-08
1.00555e-08
1.0055e-08
1.00546e-08
1.00543e-08
1.00539e-08
1.00536e-08
1.00532e-08
1.00529e-08
1.00526e-08
1.00524e-08
1.00522e-08
1.0052e-08
1.00518e-08
1.00516e-08
1.00514e-08
1.00512e-08
1.00511e-08
1.00509e-08
1.00508e-08
1.00508e-08
1.00507e-08
1.00505e-08
1.00504e-08
1.00504e-08
1.00503e-08
1.00503e-08
1.00502e-08
1.00501e-08
1.00501e-08
1.005e-08
1.005e-08
1.00499e-08
1.00498e-08
1.00497e-08
1.00496e-08
1.00495e-08
1.00495e-08
1.00495e-08
1.00494e-08
1.00494e-08
1.00492e-08
1.00491e-08
1.0049e-08
1.0049e-08
1.00489e-08
1.00489e-08
1.00488e-08
1.00487e-08
1.00487e-08
1.00486e-08
1.00485e-08
1.00484e-08
1.00483e-08
1.00483e-08
1.00483e-08
1.00482e-08
1.00481e-08
1.0048e-08
1.00479e-08
1.00479e-08
1.00478e-08
1.00478e-08
1.00477e-08
1.00476e-08
1.00476e-08
1.00475e-08
1.00474e-08
1.00473e-08
1.00472e-08
1.00471e-08
1.0047e-08
1.00469e-08
1.00467e-08
1.00466e-08
1.00465e-08
1.00464e-08
1.00462e-08
1.0046e-08
1.00458e-08
1.00457e-08
1.00455e-08
1.00454e-08
1.00452e-08
1.0045e-08
1.00448e-08
1.00446e-08
1.00444e-08
1.00442e-08
1.0044e-08
1.00438e-08
1.00437e-08
1.00435e-08
1.00434e-08
1.00432e-08
1.0043e-08
1.00428e-08
1.00427e-08
1.00425e-08
1.00424e-08
1.00423e-08
1.00421e-08
1.0042e-08
1.00418e-08
1.00417e-08
1.00416e-08
1.00415e-08
1.00413e-08
1.00412e-08
1.00411e-08
1.00409e-08
1.00408e-08
1.00406e-08
1.00405e-08
1.00403e-08
1.00402e-08
1.004e-08
1.00399e-08
1.00398e-08
1.00396e-08
1.00394e-08
1.00393e-08
1.00391e-08
1.0039e-08
1.00389e-08
1.00387e-08
1.00386e-08
1.00384e-08
1.00383e-08
1.00382e-08
1.00381e-08
1.00379e-08
1.00378e-08
1.00377e-08
1.00376e-08
1.00375e-08
1.00374e-08
1.00373e-08
1.00372e-08
1.00371e-08
1.0037e-08
1.00369e-08
1.00368e-08
1.00367e-08
1.00366e-08
1.00365e-08
1.00364e-08
1.00363e-08
1.00362e-08
1.00361e-08
1.0036e-08
1.00358e-08
1.00358e-08
1.00356e-08
1.00355e-08
1.00354e-08
1.00353e-08
1.00352e-08
1.00351e-08
1.0035e-08
1.00349e-08
1.00348e-08
1.00347e-08
1.00347e-08
1.00346e-08
1.00345e-08
1.00344e-08
1.00343e-08
1.00343e-08
1.00342e-08
1.00341e-08
1.0034e-08
1.00339e-08
1.00338e-08
1.00337e-08
1.00337e-08
1.00335e-08
1.00335e-08
1.00333e-08
1.00332e-08
1.00331e-08
1.00333e-08
1.00333e-08
1.00333e-08
1.00333e-08
1.00335e-08
1.00334e-08
1.00332e-08
1.00338e-08
1.0034e-08
1.0034e-08
1.00342e-08
1.00341e-08
1.00343e-08
1.00344e-08
1.00341e-08
1.00339e-08
1.00338e-08
1.00337e-08
1.00334e-08
1.00334e-08
1.00331e-08
1.00322e-08
1.00327e-08
1.00329e-08
1.00328e-08
1.0033e-08
1.00331e-08
1.00331e-08
1.00331e-08
1.00331e-08
1.00334e-08
1.00336e-08
1.00332e-08
1.00329e-08
1.00326e-08
1.00325e-08
1.00323e-08
1.00322e-08
1.0032e-08
1.00318e-08
1.00317e-08
1.00317e-08
1.00318e-08
1.00317e-08
1.00324e-08
1.00325e-08
1.00321e-08
1.00328e-08
1.00341e-08
1.00376e-08
1.00412e-08
1.00459e-08
1.00487e-08
1.0048e-08
1.00455e-08
1.00428e-08
1.00406e-08
1.00389e-08
1.00377e-08
1.00367e-08
1.0036e-08
1.00355e-08
1.0035e-08
1.00344e-08
1.00336e-08
1.00328e-08
1.0032e-08
1.00312e-08
1.00306e-08
1.003e-08
1.00295e-08
1.0029e-08
1.00286e-08
1.00283e-08
1.00279e-08
1.00277e-08
1.00275e-08
1.00273e-08
1.00273e-08
1.00272e-08
1.00272e-08
1.00272e-08
1.00272e-08
1.00272e-08
1.00272e-08
1.00273e-08
1.00273e-08
1.00274e-08
1.00275e-08
1.00277e-08
1.00277e-08
1.00278e-08
1.00278e-08
1.00278e-08
1.00278e-08
1.00277e-08
1.00277e-08
1.00277e-08
1.00277e-08
1.00278e-08
1.00278e-08
1.00279e-08
1.0028e-08
1.0028e-08
1.0028e-08
1.0028e-08
1.0028e-08
1.0028e-08
1.0028e-08
1.00279e-08
1.00278e-08
1.00277e-08
1.00277e-08
1.00277e-08
1.00277e-08
1.00277e-08
1.00277e-08
1.00276e-08
1.00274e-08
1.00273e-08
1.00271e-08
1.00271e-08
1.00271e-08
1.00271e-08
1.00271e-08
1.0027e-08
1.0027e-08
1.0027e-08
1.0027e-08
1.0027e-08
1.00269e-08
1.00268e-08
1.00267e-08
1.00267e-08
1.00266e-08
1.00266e-08
1.00266e-08
1.00271e-08
1.00277e-08
1.00286e-08
1.00298e-08
1.00301e-08
1.02482e-08
1.04843e-08
1.07303e-08
1.10576e-08
1.13492e-08
1.16641e-08
1.2251e-08
1.3529e-08
1.59551e-08
1.94355e-08
2.33e-08
2.74208e-08
3.34244e-08
4.27889e-08
5.32077e-08
5.84897e-08
5.81461e-08
5.61722e-08
5.33959e-08
4.70103e-08
3.6147e-08
2.83632e-08
2.30393e-08
1.90346e-08
1.65191e-08
1.52644e-08
1.48026e-08
1.47154e-08
1.46213e-08
1.42718e-08
1.36877e-08
1.30605e-08
1.25616e-08
1.22214e-08
1.20235e-08
1.19287e-08
1.18941e-08
1.18915e-08
1.18571e-08
1.17395e-08
1.15746e-08
1.14444e-08
1.13844e-08
1.13793e-08
1.139e-08
1.13693e-08
1.1293e-08
1.11704e-08
1.10388e-08
1.09297e-08
1.08517e-08
1.08037e-08
1.07824e-08
1.07817e-08
1.07925e-08
1.08011e-08
1.08055e-08
1.0823e-08
1.08679e-08
1.09361e-08
1.10108e-08
1.10661e-08
1.10858e-08
1.10739e-08
1.10593e-08
1.10796e-08
1.11571e-08
1.12934e-08
1.1483e-08
1.17386e-08
1.20831e-08
1.25442e-08
1.31448e-08
1.38999e-08
1.48297e-08
1.59455e-08
1.7234e-08
1.86419e-08
2.0062e-08
2.13587e-08
2.24224e-08
2.32043e-08
2.37082e-08
2.39971e-08
2.41517e-08
2.42301e-08
2.42319e-08
2.41778e-08
2.40929e-08
2.38172e-08
2.30922e-08
2.18861e-08
2.01267e-08
1.78971e-08
1.5822e-08
1.43641e-08
1.34603e-08
1.29507e-08
1.26722e-08
1.25027e-08
1.2363e-08
1.21762e-08
1.1954e-08
1.17216e-08
1.15223e-08
1.13825e-08
1.12923e-08
1.12466e-08
1.12327e-08
1.12283e-08
1.12101e-08
1.11592e-08
1.10652e-08
1.09114e-08
1.07234e-08
1.05418e-08
1.03854e-08
1.02695e-08
1.01996e-08
1.01599e-08
1.01349e-08
1.01226e-08
1.01177e-08
1.01167e-08
1.01187e-08
1.01224e-08
1.01269e-08
1.01297e-08
1.01271e-08
1.01188e-08
1.01093e-08
1.01018e-08
1.00944e-08
1.00883e-08
1.0084e-08
1.00808e-08
1.0078e-08
1.00758e-08
1.00743e-08
1.00731e-08
1.00723e-08
1.00717e-08
1.00713e-08
1.0071e-08
1.00707e-08
1.00705e-08
1.00704e-08
1.00703e-08
1.00702e-08
1.00702e-08
1.00701e-08
1.00701e-08
1.00702e-08
1.00702e-08
1.00702e-08
1.00703e-08
1.00703e-08
1.00703e-08
1.00704e-08
1.00704e-08
1.00704e-08
1.00704e-08
1.00704e-08
1.00703e-08
1.00702e-08
1.00701e-08
1.007e-08
1.00699e-08
1.00697e-08
1.00695e-08
1.00693e-08
1.00691e-08
1.00688e-08
1.00686e-08
1.00683e-08
1.0068e-08
1.00677e-08
1.00673e-08
1.0067e-08
1.00667e-08
1.00663e-08
1.0066e-08
1.00656e-08
1.00651e-08
1.00647e-08
1.00643e-08
1.00638e-08
1.00635e-08
1.00631e-08
1.00627e-08
1.00623e-08
1.00618e-08
1.00614e-08
1.0061e-08
1.00605e-08
1.00601e-08
1.00598e-08
1.00594e-08
1.0059e-08
1.00586e-08
1.00582e-08
1.00579e-08
1.00576e-08
1.00572e-08
1.00568e-08
1.00564e-08
1.00561e-08
1.00558e-08
1.00554e-08
1.00551e-08
1.00548e-08
1.00544e-08
1.00541e-08
1.00538e-08
1.00535e-08
1.00532e-08
1.00529e-08
1.00525e-08
1.00523e-08
1.0052e-08
1.00517e-08
1.00514e-08
1.00512e-08
1.00509e-08
1.00506e-08
1.00504e-08
1.00502e-08
1.00499e-08
1.00497e-08
1.00495e-08
1.00493e-08
1.00491e-08
1.00489e-08
1.00487e-08
1.00486e-08
1.00484e-08
1.00482e-08
1.00481e-08
1.00479e-08
1.00478e-08
1.00476e-08
1.00475e-08
1.00474e-08
1.00472e-08
1.00471e-08
1.0047e-08
1.00469e-08
1.00468e-08
1.00466e-08
1.00465e-08
1.00464e-08
1.00463e-08