/*--------------------------------*- C++ -*----------------------------------*\
| =========                 |                                                 |
| \\      /  F ield         | OpenFOAM: The Open Source CFD Toolbox           |
|  \\    /   O peration     | Version:  v2006                                 |
|   \\  /    A nd           | Website:  www.openfoam.com                      |
|    \\/     M anipulation  |                                                 |
\*---------------------------------------------------------------------------*/
FoamFile
{
    version     2.0;
    format      ascii;
    class       volScalarField;
    location    "6.4";
    object      omega;
}
// * * * * * * * * * * * * * * * * * * * * * * * * * * * * * * * * * * * * * //

dimensions      [0 0 -1 0 0 0 0];


internalField   nonuniform List<scalar> 
33000
(
0.8033
0.804121
0.804314
0.804382
0.804508
0.804708
0.804994
0.805376
0.805852
0.806427
0.807133
0.807945
0.808798
0.809396
0.809707
0.810044
0.810598
0.811949
0.815611
0.823307
0.832937
0.838968
0.841726
0.843009
0.843475
0.843814
0.844268
0.844756
0.845205
0.845596
0.845817
0.84588
0.84584
0.845732
0.845611
0.845588
0.845724
0.845894
0.845894
0.845657
0.84533
0.845023
0.844798
0.844646
0.844487
0.844226
0.843824
0.843327
0.842816
0.842373
0.842064
0.841935
0.842003
0.842237
0.842544
0.842773
0.842778
0.842477
0.841868
0.840981
0.839817
0.838344
0.836552
0.834474
0.832176
0.829924
0.828086
0.826543
0.825127
0.823761
0.82248
0.821289
0.820294
0.819657
0.819469
0.81978
0.820661
0.822185
0.824421
0.827016
0.82898
0.830173
0.831282
0.832262
0.832883
0.833126
0.833083
0.832807
0.832305
0.831543
0.830432
0.828941
0.827224
0.825528
0.823722
0.822189
0.821081
0.820635
0.820761
0.821751
0.823077
0.823261
0.823349
0.823445
0.823706
0.823848
0.823741
0.823443
0.823068
0.822689
0.822307
0.821857
0.821236
0.820375
0.819524
0.818997
0.818908
0.819661
0.820486
0.820497
0.820485
0.820495
0.820594
0.820722
0.820818
0.820873
0.820895
0.820904
0.820918
0.820939
0.820955
0.820957
0.820949
0.820933
0.820914
0.820893
0.820876
0.820863
0.820849
0.820835
0.820817
0.820796
0.820773
0.820745
0.820709
0.820665
0.820617
0.820572
0.820533
0.820491
0.82044
0.82038
0.820319
0.820262
0.820208
0.820152
0.820089
0.820022
0.819953
0.819883
0.819811
0.819739
0.819669
0.819597
0.819519
0.819435
0.819354
0.819275
0.819189
0.819093
0.818993
0.818898
0.818809
0.818718
0.818616
0.81851
0.818411
0.818324
0.818239
0.818155
0.818077
0.818006
0.817939
0.817869
0.817796
0.817733
0.817684
0.817645
0.817605
0.817562
0.817514
0.817465
0.81742
0.817378
0.817334
0.81728
0.817215
0.81714
0.817055
0.816974
0.816901
0.81683
0.816747
0.816647
0.816533
0.816418
0.816309
0.816206
0.816098
0.81598
0.815857
0.815746
0.815655
0.815575
0.81549
0.815413
0.815356
0.815321
0.815308
0.815304
0.815299
0.815296
0.815303
0.815327
0.815365
0.815413
0.815456
0.815494
0.815532
0.815572
0.815619
0.815673
0.815725
0.815767
0.815802
0.815836
0.815867
0.815898
0.815925
0.815944
0.815956
0.815963
0.815964
0.815957
0.815942
0.815922
0.8159
0.81588
0.815856
0.815821
0.815779
0.815736
0.815693
0.815649
0.815602
0.81555
0.815494
0.815435
0.815374
0.815312
0.815248
0.815181
0.81511
0.815036
0.81496
0.814885
0.81481
0.814731
0.814646
0.814557
0.814467
0.814378
0.814287
0.814195
0.8141
0.814001
0.813898
0.813793
0.813685
0.813575
0.813463
0.813349
0.813234
0.813115
0.81299
0.812863
0.812733
0.812602
0.812467
0.812331
0.812191
0.812047
0.8119
0.811752
0.811601
0.811448
0.811292
0.811132
0.810969
0.810801
0.81063
0.810456
0.810277
0.810092
0.809899
0.809697
0.809489
0.809282
0.80908
0.808886
0.8087
0.808523
0.808354
0.808192
0.808039
0.807895
0.807759
0.807633
0.807514
0.807404
0.807303
0.807211
0.807127
0.80705
0.806983
0.806923
0.806871
0.806825
0.806785
0.806749
0.806719
0.806692
0.806669
0.806649
0.806632
0.806617
0.806602
0.806586
0.806568
0.806547
0.806524
0.8065
0.806473
0.806445
0.806416
0.806385
0.806352
0.806318
0.806283
0.806246
0.806209
0.80617
0.806129
0.806087
0.806045
0.806
0.805955
0.805909
0.805862
0.805814
0.805765
0.805715
0.805665
0.805614
0.805562
0.805511
0.80546
0.805411
0.805362
0.805314
0.805267
0.805222
0.805177
0.805133
0.805091
0.805049
0.805009
0.80497
0.804931
0.804894
0.804858
0.804822
0.804788
0.804755
0.804722
0.804691
0.804661
0.804631
0.804603
0.804575
0.804548
0.804521
0.804493
0.804464
0.804434
0.804404
0.804373
0.804342
0.80431
0.804277
0.804244
0.804211
0.804176
0.804142
0.804108
0.804073
0.804038
0.804002
0.803967
0.803932
0.803897
0.803862
0.803827
0.803791
0.803755
0.80372
0.803684
0.803649
0.803612
0.803572
0.803538
0.803501
0.803465
0.803436
0.803382
0.803329
0.803311
0.803249
0.803237
0.803206
0.803308
0.803351
0.803406
0.803426
0.803444
0.803442
0.803438
0.803428
0.80342
0.803409
0.803397
0.803397
0.803365
0.803327
0.803327
0.803282
0.803279
0.803238
0.803368
0.803437
0.803533
0.803588
0.803631
0.803655
0.803674
0.803684
0.803691
0.803679
0.803673
0.803661
0.803645
0.803649
0.803629
0.803555
0.803516
0.803458
0.803407
0.803422
0.803496
0.8037
0.804063
0.804449
0.804819
0.805141
0.805406
0.805615
0.805781
0.805911
0.806013
0.806089
0.806148
0.806195
0.806231
0.806259
0.806282
0.806297
0.806309
0.806319
0.806325
0.806327
0.806327
0.806328
0.806326
0.806323
0.806317
0.806311
0.806304
0.806296
0.806287
0.806278
0.806268
0.806257
0.806243
0.806228
0.806213
0.806198
0.806183
0.806166
0.80615
0.806133
0.806115
0.806098
0.806081
0.806062
0.806045
0.806028
0.806011
0.805994
0.805976
0.805958
0.805939
0.80592
0.805901
0.805882
0.805863
0.805843
0.805824
0.805805
0.805785
0.805766
0.805746
0.805727
0.805709
0.80569
0.805672
0.805653
0.805636
0.805618
0.805601
0.805583
0.805566
0.805548
0.80553
0.805512
0.805494
0.805477
0.805464
0.805439
0.805406
0.80528
0.582661
0.775765
0.78553
0.732061
0.648905
0.579905
0.565367
0.623407
0.755437
0.90019
1.0317
1.14979
1.26379
1.38419
1.43934
1.41088
1.35869
1.28306
1.16979
1.08789
1.05195
1.00962
0.939926
0.848965
0.756012
0.693533
0.662349
0.658643
0.661792
0.652161
0.615917
0.568781
0.531589
0.501875
0.477811
0.47379
0.488355
0.502235
0.500375
0.48226
0.452391
0.425937
0.421034
0.432877
0.443583
0.442101
0.428601
0.404276
0.379233
0.364291
0.358711
0.359395
0.363387
0.372828
0.387199
0.398081
0.402692
0.404454
0.408053
0.418996
0.436514
0.454021
0.469159
0.486024
0.508535
0.540404
0.584962
0.641374
0.70718
0.77805
0.846255
0.900699
0.936051
0.967754
1.00417
1.0479
1.09725
1.14937
1.1998
1.2544
1.30217
1.326
1.29591
1.22247
1.14394
1.04409
0.895222
0.713735
0.534696
0.413637
0.35381
0.345105
0.380881
0.455437
0.560909
0.680622
0.794526
0.88933
0.94339
0.986334
0.992603
0.940367
0.823696
0.651439
0.516154
0.367825
0.260192
0.201001
0.17372
0.15061
0.142415
0.150984
0.167448
0.190728
0.210774
0.223944
0.230883
0.242301
0.253132
0.244942
0.204101
0.171823
0.164072
0.1462
0.132086
0.126588
0.119305
0.115317
0.114527
0.112621
0.111539
0.111402
0.110821
0.111271
0.111724
0.112225
0.112582
0.112719
0.112978
0.112999
0.113217
0.113294
0.113249
0.113104
0.112884
0.112748
0.112869
0.113134
0.113382
0.113455
0.113342
0.11336
0.113607
0.113936
0.114251
0.114498
0.114756
0.115027
0.115261
0.115455
0.115638
0.115863
0.116121
0.116301
0.116396
0.116506
0.11664
0.116722
0.116684
0.116557
0.116449
0.116383
0.116261
0.115976
0.115532
0.115041
0.114608
0.114208
0.113726
0.113116
0.11241
0.111628
0.110724
0.109646
0.108512
0.107516
0.106661
0.105771
0.104684
0.103394
0.102065
0.100864
0.0998199
0.0988345
0.0977412
0.0964352
0.0949721
0.0935191
0.092247
0.0911973
0.090232
0.0891885
0.0879628
0.0865674
0.0851501
0.0838623
0.0827419
0.081668
0.0805098
0.0792377
0.0780065
0.0769155
0.0758211
0.074575
0.0731468
0.0717804
0.0706988
0.0698671
0.0690065
0.067852
0.066452
0.0650814
0.0639688
0.0631454
0.0624617
0.0616965
0.0607509
0.0597044
0.0587087
0.0579166
0.0573755
0.0569198
0.0563682
0.0557182
0.0550597
0.0544887
0.0540751
0.0538184
0.0536082
0.0533645
0.0531412
0.0529795
0.052828
0.0526313
0.0524279
0.0523078
0.0523783
0.052562
0.0526087
0.0524792
0.0523504
0.0523499
0.0524718
0.052612
0.0526874
0.0526935
0.0526585
0.0526318
0.0526591
0.0527189
0.0527506
0.0527044
0.0525985
0.0525382
0.052614
0.052807
0.0529779
0.0529409
0.0527249
0.0525192
0.0524413
0.0525221
0.05272
0.052884
0.0529039
0.0528317
0.0527599
0.0527196
0.0526953
0.0526753
0.0527333
0.0529279
0.053104
0.0530937
0.0529638
0.0528671
0.0528587
0.0529349
0.0530878
0.0532335
0.0532607
0.0531788
0.0530941
0.0530669
0.0531332
0.0532627
0.0533127
0.0532699
0.0531954
0.0530923
0.0530384
0.0530508
0.0529924
0.0528442
0.0526565
0.0525012
0.0523452
0.0521236
0.0518294
0.0515096
0.0512677
0.0510957
0.050875
0.0505137
0.050087
0.0497453
0.0494813
0.0491789
0.0488521
0.0485342
0.0482776
0.0480996
0.047886
0.0476251
0.0474212
0.0473412
0.0473278
0.0472481
0.0471229
0.0470515
0.0471002
0.0472662
0.0473649
0.0472951
0.0471215
0.0469564
0.0468437
0.0467622
0.046687
0.0465227
0.0462694
0.0460092
0.045772
0.0456087
0.0454379
0.0451322
0.0447565
0.0444064
0.0441424
0.043925
0.0436559
0.043295
0.0429384
0.0426929
0.0424523
0.0421367
0.0418252
0.0415465
0.0412718
0.0409782
0.040692
0.0404237
0.0401641
0.0399275
0.0396827
0.0394199
0.0391364
0.0388641
0.0386056
0.0383669
0.038111
0.0378158
0.0374995
0.037202
0.0369298
0.0366535
0.0363751
0.036106
0.0358551
0.0355934
0.0352817
0.0349474
0.0346306
0.0343523
0.0340876
0.0338234
0.0335572
0.0332565
0.0329484
0.0326781
0.0324413
0.0321602
0.0318562
0.0315952
0.0313552
0.0310936
0.0308608
0.0306525
0.0304292
0.0301806
0.0299159
0.0296579
0.0294374
0.0292385
0.0290265
0.0288344
0.0285746
0.0283339
0.0280902
0.0279035
0.0277339
0.0275569
0.0274093
0.0271616
0.0270046
0.0269277
0.0267703
0.0268137
0.0267893
0.0262562
0.0261848
0.026282
0.0259997
0.0278513
0.0288143
0.0260396
0.0278848
0.0276055
0.0273565
0.0284279
0.0297561
0.028927
0.0270816
0.0257932
0.0249782
0.0246382
0.0244864
0.0244264
0.0244169
0.0245829
0.0246002
0.0263237
0.0284097
0.0260127
0.0273208
0.0275596
0.0272532
0.027465
0.0279158
0.0277899
0.0264478
0.0254788
0.0247959
0.0244516
0.0244086
0.0243884
0.0248021
0.0251593
0.0247476
0.0253608
0.0252787
0.0274156
0.0415435
0.0456518
0.0462508
0.0490057
0.0515784
0.0540722
0.0575596
0.0622143
0.0649599
0.0635673
0.0572271
0.0487684
0.0412833
0.0357424
0.0319947
0.0295365
0.0279454
0.0269198
0.0262702
0.0258632
0.0256136
0.0254887
0.0254585
0.0254862
0.0255674
0.0256815
0.0258003
0.0259007
0.026017
0.0261665
0.0263281
0.0264786
0.0266082
0.0267223
0.0268298
0.0269306
0.0270275
0.0271158
0.0272086
0.0272387
0.0271887
0.0271162
0.0270705
0.0270667
0.0271047
0.0271673
0.0272334
0.0272981
0.0273691
0.027451
0.0275392
0.027595
0.0276913
0.0278572
0.0280217
0.0281234
0.0281598
0.0281479
0.0281094
0.0280686
0.028048
0.0280654
0.0281222
0.0281965
0.0282505
0.0282581
0.0282368
0.0282396
0.0283114
0.0284444
0.0285634
0.0285971
0.0285623
0.0285488
0.0286093
0.0286748
0.0286608
0.0285819
0.0285595
0.0285034
0.0283393
0.0281125
0.0280393
0.0281743
0.0284968
0.0293503
0.0305039
0.0304932
0.280373
0.332859
0.348404
0.34156
0.316626
0.291491
0.293051
0.332191
0.41428
0.531983
0.682119
0.848688
0.999736
1.12742
1.20763
1.2379
1.21688
1.12719
1.03287
0.967067
0.85547
0.731753
0.62641
0.532116
0.460598
0.416985
0.396065
0.390603
0.388269
0.377263
0.35508
0.328023
0.304034
0.287133
0.27744
0.273738
0.273346
0.274162
0.271401
0.26342
0.250912
0.237447
0.230255
0.230778
0.232261
0.229851
0.223507
0.21231
0.198364
0.186794
0.180401
0.179089
0.181269
0.185503
0.190189
0.194383
0.197773
0.199659
0.203555
0.212729
0.222638
0.23021
0.235422
0.238088
0.238446
0.241942
0.250982
0.267703
0.290743
0.317368
0.342884
0.365028
0.384637
0.406253
0.433946
0.470517
0.516937
0.572628
0.636343
0.707609
0.79058
0.890756
1.00319
1.09321
1.12892
1.11186
0.997449
0.839997
0.675629
0.519931
0.402626
0.319581
0.27561
0.269218
0.293056
0.328928
0.369756
0.402774
0.423824
0.434262
0.435054
0.428516
0.42185
0.40442
0.375895
0.331495
0.278171
0.222362
0.164613
0.111475
0.0713186
0.0483708
0.0364364
0.0344181
0.0395765
0.0451699
0.0479465
0.0479928
0.0469923
0.0456897
0.0468689
0.0480491
0.0459342
0.0372901
0.029513
0.0267941
0.0227134
0.0199846
0.0189472
0.017621
0.0168052
0.0166241
0.0163826
0.0164197
0.0166062
0.0167726
0.0168395
0.0168155
0.016872
0.0168455
0.0168898
0.0169231
0.0169146
0.0168871
0.0168461
0.0168281
0.0168704
0.0169309
0.0169722
0.0169906
0.0169984
0.0170359
0.0171084
0.0171896
0.0172654
0.0173361
0.0174208
0.017516
0.0176001
0.0176655
0.0177199
0.0177801
0.0178501
0.0179096
0.0179492
0.0179796
0.0180101
0.0180339
0.0180301
0.0179938
0.0179532
0.0179242
0.0178841
0.0177991
0.017662
0.0175044
0.0173611
0.0172268
0.017068
0.0168712
0.0166538
0.0164227
0.0161556
0.0158361
0.0154937
0.0151789
0.0149076
0.0146507
0.0143656
0.0140367
0.0136815
0.013331
0.0130112
0.0127232
0.0124422
0.0121392
0.0118015
0.0114441
0.0111115
0.010837
0.010604
0.0103629
0.0100783
0.00976424
0.00945864
0.00918956
0.00895592
0.00872824
0.0084833
0.00822841
0.00799355
0.0077927
0.00759471
0.0073633
0.00710765
0.00687259
0.0066864
0.00653958
0.00639949
0.00622895
0.00602322
0.00581681
0.00564202
0.00550936
0.00540268
0.00529549
0.00516974
0.00503127
0.00489597
0.00478243
0.00470062
0.00463444
0.00456269
0.00447904
0.00439334
0.00431964
0.00426697
0.00423481
0.00421025
0.00418227
0.00415301
0.00412733
0.00410515
0.00408406
0.00406638
0.00405745
0.00406522
0.00408218
0.00408727
0.00407732
0.0040686
0.00407308
0.0040874
0.00410013
0.00410577
0.00410713
0.00410828
0.00411293
0.00412189
0.00412793
0.00412548
0.00411634
0.00410615
0.00410369
0.00411568
0.00413797
0.00415488
0.00414952
0.00412712
0.00410729
0.00410219
0.00411267
0.00413148
0.0041465
0.00415105
0.00414906
0.0041455
0.00414201
0.00413872
0.00413727
0.00414647
0.00416975
0.00418976
0.00419057
0.00418004
0.00417427
0.00417809
0.00418864
0.00420448
0.00421965
0.00422483
0.00422134
0.00421872
0.00422015
0.00422731
0.00423834
0.00424362
0.00424502
0.00424459
0.00423664
0.00422739
0.00422311
0.00421787
0.00420851
0.00418975
0.00416721
0.00414602
0.00412369
0.00409447
0.00405932
0.00402828
0.00400293
0.00397711
0.00393953
0.00389214
0.00384947
0.00381423
0.0037799
0.00374666
0.0037127
0.00368072
0.00365412
0.00362727
0.00360104
0.00358262
0.00357255
0.00356469
0.00355213
0.00353832
0.00353163
0.00353429
0.00354356
0.00354704
0.00353704
0.00351848
0.00350029
0.00348457
0.00346914
0.00345377
0.00343315
0.00340635
0.00337701
0.00334874
0.00332636
0.00330066
0.00326453
0.00322575
0.00318985
0.00315978
0.00313198
0.00310068
0.00306455
0.00302952
0.00300152
0.00297442
0.00294425
0.00291505
0.00288672
0.0028585
0.0028305
0.0028043
0.0027795
0.00275454
0.00273141
0.0027083
0.00268484
0.0026609
0.00263731
0.00261454
0.00259306
0.00257063
0.002546
0.00251974
0.00249486
0.00247199
0.00244943
0.00242698
0.00240413
0.00238197
0.00236005
0.00233622
0.00231118
0.0022865
0.00226454
0.0022436
0.00222252
0.002201
0.00217821
0.00215573
0.00213525
0.00211582
0.00209485
0.00207371
0.00205542
0.00203751
0.00201851
0.00200092
0.00198492
0.00196884
0.00195286
0.00193517
0.00191836
0.00190298
0.00188895
0.00187327
0.00186093
0.0018463
0.00183185
0.00181617
0.0018003
0.00178733
0.00177148
0.00176334
0.00175286
0.00175122
0.00174993
0.0017289
0.00171753
0.00172206
0.00174178
0.00181871
0.00188164
0.00179057
0.00192551
0.00194615
0.00181345
0.00174225
0.00172605
0.00176933
0.00180428
0.00185686
0.00179463
0.00170948
0.00166388
0.00161277
0.00160247
0.00161768
0.00167407
0.00172784
0.0018067
0.00176844
0.00190227
0.00196802
0.00187035
0.00178917
0.00174288
0.00176531
0.00174401
0.00177216
0.0017382
0.00170458
0.00168938
0.00167401
0.00166838
0.00165722
0.00160292
0.00164593
0.00168909
0.00184048
0.00234846
0.00278928
0.00318426
0.00395726
0.00419721
0.00404336
0.0037225
0.00356301
0.00363047
0.00393835
0.00429981
0.00442847
0.00413476
0.00360836
0.0030625
0.00261077
0.00228453
0.00206602
0.00192251
0.00182742
0.00176229
0.00171746
0.00168692
0.00166584
0.00165266
0.00164577
0.00164231
0.00164208
0.00164444
0.00164797
0.00165137
0.00165653
0.00166434
0.00167325
0.00168178
0.0016896
0.00169675
0.00170342
0.00170967
0.00171567
0.00172114
0.00172675
0.00172967
0.00172915
0.00172764
0.00172727
0.00172852
0.00173098
0.00173433
0.00173813
0.00174223
0.00174696
0.00175269
0.00175904
0.00176392
0.0017701
0.00177876
0.00178711
0.00179276
0.00179558
0.00179636
0.00179582
0.00179481
0.00179439
0.00179576
0.0017994
0.00180437
0.00180875
0.00181115
0.0018122
0.00181448
0.00182021
0.00182819
0.00183408
0.00183556
0.00183489
0.0018361
0.00184015
0.00184264
0.00184128
0.00183817
0.00183853
0.00183692
0.00182985
0.001821
0.00182014
0.00183841
0.00187643
0.00197403
0.00209945
0.00213763
0.173008
0.193841
0.215964
0.21521
0.201745
0.185221
0.182883
0.20336
0.24733
0.307465
0.374036
0.450692
0.554366
0.691511
0.813513
0.843775
0.83557
0.787627
0.730592
0.654021
0.535215
0.436981
0.364031
0.303978
0.26059
0.234058
0.221796
0.218943
0.217014
0.209525
0.195751
0.178636
0.163508
0.153818
0.148779
0.14498
0.141434
0.138932
0.136467
0.13305
0.128279
0.123093
0.118785
0.115793
0.113972
0.112267
0.109723
0.105855
0.100691
0.0948999
0.089748
0.0862269
0.0850538
0.0858908
0.0879497
0.0905213
0.0925221
0.0937987
0.0965559
0.101629
0.107602
0.113145
0.117393
0.11929
0.119172
0.119394
0.122422
0.128365
0.137723
0.14987
0.164333
0.180931
0.199247
0.219287
0.242538
0.271137
0.30611
0.346881
0.39035
0.433292
0.4735
0.510801
0.545842
0.580542
0.615574
0.647538
0.665596
0.652644
0.615195
0.553367
0.466818
0.374896
0.298907
0.242318
0.207376
0.190408
0.189303
0.197909
0.206916
0.213485
0.213999
0.210508
0.206909
0.204232
0.202011
0.202706
0.200314
0.194086
0.182972
0.159982
0.129567
0.102303
0.0696717
0.0425259
0.0256564
0.0166028
0.0126815
0.0113558
0.0112574
0.0112392
0.0110521
0.0113882
0.0119992
0.013325
0.0143432
0.0138162
0.0107534
0.00816926
0.00718188
0.00609792
0.0053093
0.00485594
0.00441225
0.00415907
0.00408229
0.00405531
0.00405942
0.00404527
0.00404404
0.00399974
0.00397264
0.00396998
0.003964
0.00396031
0.00395411
0.00394701
0.00394862
0.0039559
0.00396235
0.00396964
0.00397754
0.00398857
0.0040033
0.00402115
0.0040395
0.004057
0.00407557
0.0040969
0.00411946
0.0041385
0.00415238
0.00416423
0.00417839
0.00419325
0.00420423
0.00421134
0.00421803
0.00422447
0.00422569
0.00421955
0.00421109
0.00420516
0.0041977
0.00418105
0.00415408
0.00412303
0.00409385
0.00406556
0.00403196
0.00399116
0.00394837
0.00390525
0.00385633
0.00379755
0.00373276
0.00366992
0.00361393
0.00356286
0.00351072
0.00345338
0.00338978
0.00332329
0.0032597
0.003202
0.00314942
0.00309803
0.0030415
0.00297809
0.00291604
0.00286333
0.00281944
0.00277658
0.00272533
0.00266758
0.00261261
0.0025643
0.00252252
0.00248166
0.00243676
0.00238971
0.00234384
0.00230341
0.0022668
0.00222599
0.00218141
0.00213904
0.0021007
0.00206568
0.00203382
0.00200225
0.00196764
0.00193168
0.00189635
0.00186414
0.00183685
0.00181357
0.00179018
0.00176483
0.00173826
0.00171267
0.00169056
0.00167172
0.00165461
0.00163734
0.00162014
0.00160439
0.001591
0.00157883
0.00156697
0.00155616
0.00154659
0.00153858
0.00153149
0.00152426
0.00151714
0.00151079
0.00150573
0.00150195
0.00149891
0.00149584
0.00149269
0.0014898
0.00148699
0.00148411
0.00148158
0.00147987
0.00147866
0.00147725
0.00147549
0.00147359
0.00147132
0.00146896
0.00146695
0.0014653
0.0014645
0.00146493
0.00146529
0.00146401
0.00146163
0.00145975
0.00145912
0.00145916
0.00145908
0.00145884
0.00145883
0.00145924
0.00145978
0.0014599
0.00145943
0.00145899
0.00145967
0.00146142
0.0014631
0.00146399
0.00146433
0.00146475
0.00146557
0.00146654
0.0014678
0.00146943
0.00147087
0.00147184
0.00147265
0.00147333
0.00147392
0.00147462
0.00147528
0.00147606
0.00147669
0.00147627
0.00147504
0.00147406
0.00147338
0.00147219
0.00146962
0.0014663
0.00146326
0.00146031
0.00145627
0.00145123
0.00144631
0.00144171
0.00143703
0.00143125
0.0014243
0.00141727
0.00141077
0.00140453
0.00139828
0.00139171
0.00138495
0.00137831
0.00137181
0.00136562
0.00136013
0.00135494
0.00134968
0.00134418
0.00133857
0.00133362
0.00132945
0.00132549
0.00132112
0.00131621
0.00131094
0.00130573
0.00130074
0.00129561
0.00129052
0.00128558
0.00128031
0.00127479
0.00126938
0.00126413
0.00125877
0.0012531
0.00124758
0.00124247
0.00123775
0.00123322
0.00122865
0.0012239
0.00121928
0.0012152
0.00121143
0.00120781
0.00120435
0.00120086
0.00119747
0.00119436
0.00119154
0.00118888
0.00118614
0.00118352
0.00118109
0.0011788
0.00117654
0.00117423
0.00117192
0.00116978
0.00116775
0.00116566
0.00116337
0.00116106
0.00115892
0.00115688
0.00115481
0.00115263
0.0011505
0.00114845
0.00114638
0.00114424
0.00114204
0.00113992
0.00113791
0.00113583
0.00113375
0.0011316
0.00112954
0.00112751
0.0011255
0.00112345
0.00112147
0.00111957
0.00111774
0.00111585
0.00111397
0.0011122
0.00111046
0.00110881
0.0011071
0.00110523
0.00110358
0.00110212
0.00110064
0.00109957
0.00109791
0.00109543
0.00109371
0.00109301
0.00109261
0.0010934
0.00109511
0.00109595
0.00109028
0.00109511
0.00112069
0.00114052
0.00117537
0.00119013
0.00129876
0.00134338
0.00125755
0.00119805
0.00115744
0.00115239
0.00111138
0.00110515
0.0010921
0.00108821
0.00109224
0.00108692
0.00109359
0.00114431
0.00117495
0.00119966
0.00122668
0.00126241
0.00134994
0.0014116
0.00132645
0.00125911
0.00120136
0.00118881
0.00113305
0.0011165
0.00109454
0.00108896
0.00110815
0.00110647
0.00111567
0.0010946
0.00113581
0.00115849
0.00120043
0.00131569
0.00149009
0.00180229
0.00226984
0.00288529
0.0031893
0.00312882
0.00276922
0.00235701
0.00199565
0.00175176
0.00158303
0.00146353
0.00136681
0.00132198
0.00131264
0.00130926
0.00129576
0.00127173
0.00124346
0.00121606
0.0011922
0.00117209
0.00115532
0.00114127
0.0011294
0.00111951
0.00111106
0.00110416
0.00109863
0.0010938
0.00108983
0.00108669
0.0010841
0.00108184
0.00108017
0.00107906
0.00107811
0.0010771
0.00107624
0.00107554
0.00107511
0.00107489
0.00107483
0.00107467
0.00107458
0.00107437
0.00107402
0.00107375
0.00107367
0.0010737
0.00107377
0.00107386
0.00107393
0.00107398
0.00107408
0.00107429
0.00107455
0.00107466
0.00107484
0.00107514
0.00107537
0.00107547
0.00107548
0.00107545
0.00107539
0.00107531
0.00107526
0.00107529
0.00107542
0.0010756
0.00107577
0.00107591
0.00107603
0.00107614
0.00107632
0.00107652
0.00107666
0.00107671
0.00107672
0.00107677
0.00107686
0.00107688
0.00107682
0.0010768
0.00107691
0.00107705
0.00107686
0.00107663
0.00107782
0.00108805
0.00111175
0.00117807
0.00126979
0.00131884
0.112709
0.134784
0.152903
0.149019
0.137709
0.126194
0.122815
0.132877
0.158056
0.190968
0.222121
0.252243
0.298004
0.370599
0.450707
0.490848
0.483719
0.452602
0.410118
0.351663
0.282369
0.232697
0.19627
0.166827
0.145442
0.132335
0.126043
0.123818
0.121585
0.117317
0.110078
0.101386
0.0939304
0.089282
0.0861044
0.0826548
0.0790235
0.0758681
0.0735724
0.0725234
0.0718708
0.0703534
0.0675143
0.0637402
0.0606521
0.0591873
0.058792
0.0585403
0.0573212
0.0543837
0.0503588
0.0468587
0.0449285
0.044605
0.0455056
0.0469389
0.0481775
0.0492508
0.0508634
0.0532084
0.0562695
0.0599195
0.0633108
0.065642
0.0667056
0.0670147
0.0678944
0.0703083
0.0741337
0.0794513
0.0864503
0.095295
0.105856
0.117737
0.131515
0.14819
0.168227
0.191226
0.215792
0.239751
0.260814
0.278053
0.291465
0.301987
0.310865
0.319031
0.326557
0.333715
0.341083
0.34612
0.343537
0.331752
0.30708
0.266367
0.219117
0.17935
0.150506
0.130809
0.117892
0.111481
0.108991
0.106673
0.104461
0.102122
0.100944
0.102897
0.106857
0.111536
0.11662
0.120862
0.12191
0.117417
0.105605
0.0892517
0.0726446
0.0536497
0.0351851
0.0214502
0.0132254
0.00925367
0.00725143
0.0064984
0.00628253
0.00632117
0.00685575
0.0076283
0.00879084
0.00961799
0.00938587
0.00742755
0.00570458
0.00496943
0.00425668
0.00370606
0.00333978
0.00315378
0.00287726
0.00264379
0.00253745
0.00247467
0.00242875
0.00240143
0.00237077
0.00235014
0.00234445
0.00233755
0.00233253
0.00233202
0.00233396
0.00233745
0.00234077
0.00234276
0.00234702
0.00235497
0.00236454
0.00237338
0.00238016
0.00238643
0.00239434
0.00240295
0.00241049
0.00241648
0.0024225
0.00242858
0.002433
0.00243591
0.00243931
0.00244371
0.00244737
0.00244861
0.00244776
0.00244706
0.00244681
0.00244535
0.00244221
0.00243811
0.00243299
0.002426
0.00241669
0.00240668
0.00239858
0.00239231
0.00238443
0.00237244
0.00235702
0.00234009
0.00232364
0.00230921
0.00229752
0.00228608
0.00227174
0.00225506
0.00223619
0.00221656
0.00220025
0.00218707
0.00217322
0.00215553
0.00213492
0.00211486
0.00209815
0.00208402
0.00206659
0.00204504
0.00202443
0.00200653
0.00199033
0.00197287
0.00195261
0.00193011
0.00190772
0.00188911
0.00187333
0.00185567
0.00183467
0.00181224
0.00178969
0.00176817
0.00174993
0.00173362
0.00171591
0.00169567
0.00167393
0.00165343
0.00163481
0.00161859
0.0016034
0.00158783
0.00157187
0.00155503
0.00153819
0.00152275
0.00150926
0.00149741
0.00148586
0.00147398
0.0014629
0.00145229
0.00144155
0.00143225
0.00142474
0.00141795
0.00141093
0.00140348
0.0013961
0.00138939
0.00138376
0.00137939
0.00137599
0.00137257
0.00136852
0.00136411
0.00136016
0.00135664
0.00135349
0.00135099
0.00134879
0.00134624
0.00134341
0.0013412
0.00133961
0.00133803
0.00133635
0.00133429
0.00133198
0.00133035
0.00132954
0.00132884
0.00132799
0.00132716
0.00132623
0.00132501
0.00132404
0.00132357
0.00132324
0.00132301
0.00132309
0.00132335
0.0013233
0.0013229
0.00132263
0.00132278
0.00132332
0.00132409
0.00132483
0.00132514
0.00132524
0.00132564
0.00132629
0.00132708
0.00132794
0.00132857
0.00132894
0.00132936
0.00132983
0.00133021
0.00133055
0.00133079
0.00133083
0.00133068
0.00133039
0.00133007
0.00132953
0.00132847
0.00132716
0.0013258
0.00132435
0.0013226
0.00132029
0.00131773
0.00131514
0.00131237
0.00130928
0.00130572
0.00130195
0.00129815
0.00129426
0.00129014
0.00128568
0.00128112
0.00127662
0.00127206
0.00126737
0.0012625
0.00125751
0.00125251
0.00124771
0.00124294
0.00123799
0.00123297
0.00122803
0.00122328
0.00121855
0.00121387
0.00120931
0.00120492
0.00120069
0.00119644
0.00119225
0.00118827
0.00118428
0.00118035
0.00117663
0.00117293
0.00116938
0.00116596
0.00116259
0.00115938
0.00115633
0.00115349
0.0011509
0.00114829
0.00114569
0.00114326
0.001141
0.00113892
0.00113701
0.0011352
0.00113344
0.00113175
0.00113021
0.00112883
0.00112749
0.00112617
0.0011249
0.00112366
0.00112252
0.00112148
0.00112041
0.00111928
0.00111824
0.00111734
0.00111642
0.00111536
0.00111427
0.00111323
0.00111224
0.00111125
0.00111021
0.0011091
0.00110803
0.00110697
0.0011059
0.00110472
0.00110361
0.00110253
0.00110142
0.00110023
0.00109902
0.00109792
0.00109677
0.00109561
0.00109437
0.00109321
0.00109213
0.00109107
0.00108993
0.00108877
0.00108752
0.00108643
0.00108551
0.00108449
0.00108355
0.00108262
0.00108096
0.00108012
0.00108026
0.00108063
0.00108628
0.00108666
0.00108485
0.00107967
0.00108455
0.00110907
0.00113019
0.0011656
0.00118336
0.00129343
0.00134173
0.001256
0.0011946
0.00115058
0.00114289
0.0010997
0.00108903
0.00107679
0.00108005
0.00107973
0.00107343
0.00108378
0.00113888
0.00117384
0.00122938
0.00123949
0.00135963
0.00141828
0.00136894
0.00129513
0.00121731
0.0011824
0.00117456
0.00112193
0.00110372
0.00108028
0.00107299
0.00109088
0.00109444
0.00109566
0.00108124
0.00113429
0.00119301
0.00132087
0.00147012
0.00177513
0.00206245
0.00253306
0.00304303
0.00327524
0.0032407
0.00289331
0.00246143
0.00206025
0.0017757
0.00155233
0.00139391
0.00127393
0.00120895
0.00119248
0.00119653
0.00120148
0.00120294
0.0012007
0.00119513
0.0011869
0.00117672
0.00116541
0.00115374
0.00114237
0.00113152
0.00112205
0.00111384
0.00110647
0.00109968
0.00109366
0.00108839
0.00108374
0.00107986
0.00107665
0.00107386
0.00107144
0.00106946
0.00106777
0.00106623
0.00106486
0.00106376
0.00106282
0.00106195
0.00106127
0.00106084
0.00106047
0.00106006
0.00105962
0.0010592
0.00105884
0.00105857
0.00105838
0.00105823
0.00105813
0.00105804
0.00105794
0.00105784
0.00105777
0.0010577
0.00105758
0.00105749
0.00105743
0.00105737
0.00105729
0.00105718
0.00105706
0.00105693
0.00105685
0.0010568
0.0010568
0.0010568
0.00105677
0.00105671
0.00105666
0.00105661
0.00105656
0.0010565
0.00105645
0.00105642
0.00105636
0.00105628
0.00105622
0.00105621
0.00105621
0.00105618
0.00105622
0.00105624
0.00105631
0.00105624
0.00105616
0.00105739
0.00106744
0.00109101
0.00115667
0.00124773
0.00129751
0.0774884
0.11012
0.113237
0.100644
0.0938404
0.0860565
0.084776
0.0904881
0.104834
0.121746
0.134614
0.145056
0.162089
0.190316
0.223607
0.243552
0.243183
0.227871
0.20396
0.172961
0.14288
0.121795
0.10607
0.0932832
0.0842516
0.0786784
0.0755574
0.0737386
0.0716447
0.0689247
0.0652072
0.0612103
0.0580964
0.0561263
0.0542979
0.051841
0.0487739
0.0459493
0.0444781
0.0446404
0.0454508
0.0453438
0.0434439
0.040168
0.0372054
0.0359127
0.0360775
0.036792
0.0370077
0.0359322
0.033664
0.0311109
0.0291919
0.0283799
0.0287328
0.0297037
0.0306477
0.031395
0.0320254
0.0328282
0.0341597
0.0360802
0.0383098
0.0404193
0.0420507
0.0429424
0.0433422
0.0439404
0.0452354
0.0474176
0.050652
0.0551495
0.0608144
0.0670762
0.0735832
0.0807165
0.08936
0.100134
0.112724
0.126092
0.13896
0.150307
0.15977
0.167342
0.173343
0.178098
0.181997
0.185111
0.187874
0.190859
0.194429
0.198472
0.201507
0.200925
0.195121
0.181784
0.160614
0.136057
0.113705
0.0957437
0.0816756
0.0705518
0.0631577
0.0592689
0.0570344
0.0566645
0.0580514
0.0608429
0.0656637
0.0711983
0.0765851
0.0809033
0.0849199
0.0862979
0.0841084
0.0770715
0.0666142
0.0555296
0.0430129
0.0307267
0.0199066
0.0125346
0.00878949
0.00689655
0.00613463
0.00589161
0.00596666
0.00659627
0.00750021
0.00878886
0.00972931
0.009731
0.00794369
0.00631673
0.00531418
0.00464277
0.00406913
0.00358958
0.00317717
0.00281644
0.00254057
0.00240695
0.00233534
0.00227827
0.0022434
0.00221071
0.0021866
0.00218242
0.00218293
0.00218272
0.00218192
0.00218089
0.00218373
0.00219241
0.00220143
0.00220753
0.0022109
0.00221364
0.00221812
0.00222482
0.00223241
0.00223897
0.0022433
0.00224591
0.00224731
0.00224913
0.00225285
0.00225809
0.0022625
0.00226423
0.00226328
0.0022618
0.00226179
0.00226359
0.00226555
0.00226547
0.00226263
0.00225755