/*--------------------------------*- C++ -*----------------------------------*\
| =========                 |                                                 |
| \\      /  F ield         | OpenFOAM: The Open Source CFD Toolbox           |
|  \\    /   O peration     | Version:  v2006                                 |
|   \\  /    A nd           | Website:  www.openfoam.com                      |
|    \\/     M anipulation  |                                                 |
\*---------------------------------------------------------------------------*/
FoamFile
{
    version     2.0;
    format      ascii;
    class       volVectorField;
    location    "6.4";
    object      U;
}
// * * * * * * * * * * * * * * * * * * * * * * * * * * * * * * * * * * * * * //

dimensions      [0 1 -1 0 0 0 0];


internalField   nonuniform List<vector> 
33000
(
(0.0503032 0 0.000626042)
(0.0926066 0 -0.00888158)
(0.0938409 0 -0.0100386)
(0.10743 0 -0.0120608)
(0.117101 0 -0.0106542)
(0.124025 0 -0.0106782)
(0.131875 0 -0.00959627)
(0.136636 0 -0.00737499)
(0.141264 0 -0.00590947)
(0.144915 0 -0.00494476)
(0.149582 0 -0.00655678)
(0.155355 0 -0.00696076)
(0.160698 0 -0.00961032)
(0.167487 0 -0.00859465)
(0.169363 0 -0.00509074)
(0.166355 0 -0.00124915)
(0.156627 0 0.000930355)
(0.141898 0 0.00111943)
(0.12769 0 0.0126563)
(0.103774 0 0.034344)
(0.0728588 0 0.0280198)
(0.0604683 0 0.0114364)
(0.0510101 0 0.00687879)
(0.0423542 0 0.00676586)
(0.0358685 0 0.00440434)
(0.0320556 0 0.00334704)
(0.0265467 0 0.00482697)
(0.0202789 0 0.00560525)
(0.0138716 0 0.00556419)
(0.00718967 0 0.00502278)
(0.00152588 0 0.00406406)
(-0.00340219 0 0.00432614)
(-0.00873726 0 0.00450448)
(-0.0136516 0 0.00339378)
(-0.0164395 0 0.00168165)
(-0.0179803 0 0.00133652)
(-0.0209016 0 0.00294738)
(-0.0258012 0 0.00499455)
(-0.0319966 0 0.00593164)
(-0.0381942 0 0.00464606)
(-0.0418991 0 0.00193383)
(-0.0437208 0 0.0012589)
(-0.0458088 0 0.00204059)
(-0.0486824 0 0.00289389)
(-0.0529733 0 0.00419418)
(-0.0580722 0 0.00471075)
(-0.0630203 0 0.00352561)
(-0.0664617 0 0.00188433)
(-0.0685686 0 0.00151165)
(-0.0707162 0 0.00167227)
(-0.0724911 0 0.00168384)
(-0.0747279 0 0.00154507)
(-0.0763048 0 0.00118897)
(-0.0780331 0 0.00139001)
(-0.0806213 0 0.00250072)
(-0.0844652 0 0.00369622)
(-0.0888963 0 0.00431551)
(-0.0932076 0 0.00377782)
(-0.0966156 0 0.00259082)
(-0.0993653 0 0.00179087)
(-0.101862 0 0.00206433)
(-0.105186 0 0.00276275)
(-0.108545 0 0.00213086)
(-0.1105 0 0.000522606)
(-0.110548 0 -0.00125488)
(-0.108974 0 -0.00247468)
(-0.106759 0 -0.00259441)
(-0.10476 0 -0.00275252)
(-0.102706 0 -0.0035529)
(-0.0997466 0 -0.00510742)
(-0.0959907 0 -0.00665184)
(-0.0903939 0 -0.00894738)
(-0.0825556 0 -0.01157)
(-0.0730467 0 -0.0132092)
(-0.0625415 0 -0.0126014)
(-0.0509645 0 -0.00957732)
(-0.0394852 0 -0.00317698)
(-0.0314734 0 0.00381646)
(-0.034358 0 0.00499138)
(-0.025791 0 0.00168656)
(-0.0332326 0 0.00541712)
(-0.0368128 0 0.00448212)
(-0.0439338 0 0.00521688)
(-0.0459438 0 0.000950852)
(-0.0504231 0 0.00154262)
(-0.0519048 0 0.000215471)
(-0.0527599 0 0.00100684)
(-0.0533337 0 0.000603262)
(-0.0538504 0 0.00103408)
(-0.0540711 0 0.000172527)
(-0.054026 0 -0.00023796)
(-0.0534567 0 -0.000945288)
(-0.0519677 0 -0.00229329)
(-0.0492889 0 -0.0036388)
(-0.0460253 0 -0.00647894)
(-0.0397483 0 -0.00837532)
(-0.0335846 0 -0.010458)
(-0.0245956 0 -0.00868732)
(-0.0181308 0 -0.00571166)
(-0.0108746 0 0.00188064)
(-0.0116758 0 0.00570996)
(-0.0108417 0 0.00632631)
(-0.0137671 0 0.00214149)
(-0.0141933 0 -0.00148593)
(-0.0164594 0 -0.000981602)
(-0.0180806 0 -0.000491889)
(-0.0184171 0 0.0012283)
(-0.0187217 0 0.00146863)
(-0.0193794 0 0.00203197)
(-0.0202294 0 0.00108916)
(-0.0209002 0 0.000373648)
(-0.0215594 0 0.000109835)
(-0.0221337 0 -7.91192e-05)
(-0.0218448 0 -0.000395921)
(-0.0215877 0 -0.00153091)
(-0.0197115 0 -0.00207205)
(-0.0186515 0 -0.0033017)
(-0.0153699 0 -0.000822562)
(-0.016233 0 0.00164011)
(-0.01595 0 0.00283332)
(-0.0174426 0 0.00208935)
(-0.0178652 0 0.000314337)
(-0.0190433 0 0.00019563)
(-0.0203367 0 0.000203153)
(-0.0210598 0 0.000757529)
(-0.0217575 0 0.00092369)
(-0.0225567 0 0.000892861)
(-0.0232039 0 0.000545513)
(-0.0240104 0 0.000570675)
(-0.0248275 0 0.000490435)
(-0.0255186 0 0.000612997)
(-0.0262193 0 0.000567941)
(-0.0268686 0 0.000589407)
(-0.0275002 0 0.000481559)
(-0.0281722 0 0.000496153)
(-0.0288071 0 0.00041861)
(-0.0294799 0 0.000456059)
(-0.0300968 0 0.000434412)
(-0.0307145 0 0.00045031)
(-0.0313143 0 0.000449103)
(-0.0319096 0 0.000447357)
(-0.0325028 0 0.000440435)
(-0.0330658 0 0.00041929)
(-0.0336117 0 0.000405777)
(-0.034119 0 0.000375683)
(-0.034598 0 0.000363821)
(-0.0350602 0 0.000349107)
(-0.0355154 0 0.000346791)
(-0.0359563 0 0.000339579)
(-0.0363825 0 0.000320922)
(-0.0367611 0 0.000277794)
(-0.0371026 0 0.000261171)
(-0.0374341 0 0.000249314)
(-0.0377501 0 0.000241483)
(-0.0380518 0 0.000229915)
(-0.0383269 0 0.000211516)
(-0.0385738 0 0.000190332)
(-0.0388002 0 0.000169545)
(-0.0390019 0 0.000149695)
(-0.0391823 0 0.000133908)
(-0.0393397 0 0.000115647)
(-0.0394724 0 0.000101211)
(-0.0395904 0 9.00405e-05)
(-0.0396932 0 6.94034e-05)
(-0.0397595 0 4.05879e-05)
(-0.0397945 0 2.20088e-05)
(-0.0398139 0 1.22077e-05)
(-0.0398244 0 1.35972e-06)
(-0.0398108 0 -2.57661e-05)
(-0.0397572 0 -5.41809e-05)
(-0.0396735 0 -7.21449e-05)
(-0.0395767 0 -8.15328e-05)
(-0.039467 0 -9.09997e-05)
(-0.0393405 0 -0.00010982)
(-0.03918 0 -0.00014168)
(-0.0389847 0 -0.000163532)
(-0.0387677 0 -0.000177784)
(-0.0385355 0 -0.000187552)
(-0.0382881 0 -0.000202067)
(-0.0380147 0 -0.000221353)
(-0.0377223 0 -0.000233402)
(-0.0374194 0 -0.000245997)
(-0.0370952 0 -0.00026465)
(-0.0367475 0 -0.000287382)
(-0.0363668 0 -0.000310362)
(-0.0359612 0 -0.000322224)
(-0.035545 0 -0.000328372)
(-0.035119 0 -0.000334646)
(-0.0346845 0 -0.00034727)
(-0.034232 0 -0.000368276)
(-0.033753 0 -0.000387678)
(-0.0332535 0 -0.000402939)
(-0.0327326 0 -0.000412552)
(-0.0322006 0 -0.000415256)
(-0.0316627 0 -0.000423316)
(-0.0311098 0 -0.000438675)
(-0.0305409 0 -0.00045719)
(-0.0299497 0 -0.000478502)
(-0.0293287 0 -0.000498951)
(-0.0286828 0 -0.000513633)
(-0.0280255 0 -0.000516469)
(-0.0273709 0 -0.000513908)
(-0.0267094 0 -0.000522662)
(-0.0260257 0 -0.000544034)
(-0.0253097 0 -0.00057651)
(-0.0245582 0 -0.000601024)
(-0.02379 0 -0.000609975)
(-0.0230161 0 -0.000612003)
(-0.0222344 0 -0.000617051)
(-0.0214356 0 -0.000639227)
(-0.0205982 0 -0.000671207)
(-0.0197336 0 -0.000685292)
(-0.0188688 0 -0.000672514)
(-0.0180282 0 -0.000658705)
(-0.0171743 0 -0.00068981)
(-0.016267 0 -0.000724849)
(-0.0153424 0 -0.000737507)
(-0.0144102 0 -0.000735506)
(-0.0134879 0 -0.000704368)
(-0.0126122 0 -0.000675216)
(-0.0117512 0 -0.000675894)
(-0.0108865 0 -0.000690652)
(-0.0100048 0 -0.000698861)
(-0.00912622 0 -0.000689118)
(-0.00826894 0 -0.000662449)
(-0.00745222 0 -0.00061245)
(-0.00669848 0 -0.000579582)
(-0.00596003 0 -0.000569047)
(-0.0052477 0 -0.000558504)
(-0.0045435 0 -0.000550501)
(-0.00385567 0 -0.000534817)
(-0.00319385 0 -0.000501923)
(-0.00258226 0 -0.000456823)
(-0.00202132 0 -0.000432644)
(-0.00147298 0 -0.000423815)
(-0.000943005 0 -0.000407733)
(-0.000433557 0 -0.000393134)
(6.01029e-05 0 -0.000378449)
(0.000532201 0 -0.000358265)
(0.000977476 0 -0.000341808)
(0.00140389 0 -0.000331274)
(0.0018124 0 -0.000314763)
(0.00219727 0 -0.000295169)
(0.00256434 0 -0.000279665)
(0.00291872 0 -0.000275802)
(0.0032737 0 -0.000277995)
(0.00362371 0 -0.00027576)
(0.00396968 0 -0.000266633)
(0.00429697 0 -0.000244236)
(0.00459671 0 -0.000233998)
(0.00490019 0 -0.000242874)
(0.0052132 0 -0.000246702)
(0.0055243 0 -0.000243715)
(0.0058308 0 -0.000240419)
(0.00613194 0 -0.000232637)
(0.00642184 0 -0.000226609)
(0.00671296 0 -0.000228567)
(0.00700831 0 -0.00023229)
(0.00730551 0 -0.000234896)
(0.00760524 0 -0.000238072)
(0.00790651 0 -0.000237938)
(0.00820473 0 -0.000234951)
(0.00850511 0 -0.000236089)
(0.00881001 0 -0.000241539)
(0.00912201 0 -0.000248794)
(0.00944119 0 -0.000252167)
(0.00975968 0 -0.000249514)
(0.0100729 0 -0.000244263)
(0.0103842 0 -0.000247069)
(0.0107049 0 -0.000256367)
(0.0110362 0 -0.000263048)
(0.011372 0 -0.000265818)
(0.0117099 0 -0.000267899)
(0.0120509 0 -0.000267028)
(0.0123887 0 -0.000263252)
(0.0127249 0 -0.000265568)
(0.0130659 0 -0.00026988)
(0.0134103 0 -0.000272711)
(0.0137581 0 -0.000274383)
(0.0141077 0 -0.000275475)
(0.0144585 0 -0.000276872)
(0.0148112 0 -0.000277078)
(0.0151625 0 -0.000273175)
(0.0155064 0 -0.000269408)
(0.0158498 0 -0.000271024)
(0.0161965 0 -0.000272673)
(0.0165428 0 -0.000271537)
(0.0168862 0 -0.000269178)
(0.0172267 0 -0.000266647)
(0.017564 0 -0.0002624)
(0.0178949 0 -0.00025734)
(0.0182204 0 -0.000253937)
(0.0185423 0 -0.00025149)
(0.0188604 0 -0.00024824)
(0.0191731 0 -0.000243998)
(0.0194803 0 -0.00023817)
(0.0197789 0 -0.000230253)
(0.0200683 0 -0.000223914)
(0.0203505 0 -0.000218757)
(0.0206244 0 -0.000213068)
(0.0208909 0 -0.000206608)
(0.0211495 0 -0.000198277)
(0.0213961 0 -0.000188465)
(0.0216314 0 -0.000181016)
(0.0218572 0 -0.000173934)
(0.0220728 0 -0.000165147)
(0.0222773 0 -0.000155476)
(0.0224696 0 -0.000145866)
(0.0226492 0 -0.00013681)
(0.0228171 0 -0.000128283)
(0.0229741 0 -0.000118765)
(0.0231185 0 -0.00010735)
(0.0232478 0 -9.55462e-05)
(0.0233624 0 -8.54546e-05)
(0.0234648 0 -7.62257e-05)
(0.0235552 0 -6.57521e-05)
(0.0236317 0 -5.39595e-05)
(0.0236933 0 -4.27803e-05)
(0.0237408 0 -3.20061e-05)
(0.0237742 0 -2.12544e-05)
(0.0237939 0 -1.02436e-05)
(0.0237994 0 1.93195e-06)
(0.0237893 0 1.42712e-05)
(0.0237644 0 2.51235e-05)
(0.0237258 0 3.54868e-05)
(0.0236732 0 4.71398e-05)
(0.0236049 0 6.03696e-05)
(0.02352 0 7.29806e-05)
(0.0234205 0 8.40609e-05)
(0.0233071 0 9.46365e-05)
(0.0231795 0 0.000106025)
(0.0230363 0 0.000119806)
(0.022875 0 0.000133978)
(0.0226973 0 0.00014565)
(0.0225056 0 0.000155895)
(0.0223009 0 0.00016632)
(0.0220822 0 0.000177531)
(0.0218491 0 0.000189415)
(0.0216012 0 0.000201603)
(0.021338 0 0.000212747)
(0.0210616 0 0.000222129)
(0.020773 0 0.000231626)
(0.0204721 0 0.000241084)
(0.0201594 0 0.000251528)
(0.0198325 0 0.000262886)
(0.0194929 0 0.000271831)
(0.0191431 0 0.000278843)
(0.0187839 0 0.00028591)
(0.0184154 0 0.000294127)
(0.0180359 0 0.000303372)
(0.0176451 0 0.00031184)
(0.0172446 0 0.00031709)
(0.0168381 0 0.000321843)
(0.0164242 0 0.000329116)
(0.0160005 0 0.000336127)
(0.0155693 0 0.000340485)
(0.0151325 0 0.00034494)
(0.0146894 0 0.000349648)
(0.0142407 0 0.00035436)
(0.0137866 0 0.000357964)
(0.0133282 0 0.00036152)
(0.0128652 0 0.000364272)
(0.0123989 0 0.000367278)
(0.0119288 0 0.00036998)
(0.0114553 0 0.000373031)
(0.0109784 0 0.000374894)
(0.0104999 0 0.000375758)
(0.0100211 0 0.000375518)
(0.00954173 0 0.00037542)
(0.00906228 0 0.000375725)
(0.00858162 0 0.000376357)
(0.00810191 0 0.000375051)
(0.007624 0 0.000372555)
(0.00714984 0 0.000369935)
(0.00667801 0 0.000367936)
(0.00620893 0 0.0003655)
(0.00574346 0 0.000361829)
(0.00528239 0 0.000358827)
(0.00482557 0 0.000355567)
(0.00437289 0 0.000352892)
(0.0039257 0 0.000346305)
(0.00348653 0 0.000340551)
(0.00305534 0 0.000333175)
(0.00263209 0 0.00032879)
(0.00221583 0 0.000321548)
(0.00180831 0 0.0003169)
(0.00140844 0 0.000309026)
(0.00101774 0 0.000303194)
(0.0006379 0 0.000293102)
(0.000268558 0 0.000287168)
(-9.10078e-05 0 0.000278969)
(-0.000441535 0 0.00027298)
(-0.000780198 0 0.00026233)
(-0.00110762 0 0.000254789)
(-0.00142384 0 0.000246041)
(-0.00173018 0 0.000238647)
(-0.00202434 0 0.00023068)
(-0.00230995 0 0.000224135)
(-0.00258474 0 0.000216943)
(-0.00284977 0 0.000207526)
(-0.0031029 0 0.000200452)
(-0.00334443 0 0.000189666)
(-0.00357441 0 0.000184696)
(-0.00379452 0 0.000173558)
(-0.00400448 0 0.000171085)
(-0.00420344 0 0.000158118)
(-0.00439388 0 0.000156621)
(-0.00456818 0 0.000139148)
(-0.00473607 0 0.000137785)
(-0.00488627 0 0.000117274)
(-0.00503436 0 0.000116679)
(-0.00516472 0 9.75922e-05)
(-0.00529295 0 9.75133e-05)
(-0.00540486 0 8.40291e-05)
(-0.00550668 0 8.3026e-05)
(-0.00559978 0 7.05327e-05)
(-0.00568209 0 5.5422e-05)
(-0.0057555 0 4.08553e-05)
(-0.00583056 0 3.41974e-05)
(-0.00588975 0 4.04325e-05)
(-0.00593156 0 5.78152e-05)
(-0.00597501 0 5.92024e-05)
(-0.00598894 0 6.19987e-06)
(-0.00601063 0 -4.23117e-05)
(-0.0060653 0 -8.46875e-05)
(-0.00607596 0 -1.83616e-05)
(-0.00610531 0 0.00012853)
(-0.00609578 0 0.000196156)
(-0.00599435 0 9.41629e-05)
(-0.00591755 0 -0.000207052)
(-0.00550462 0 -0.000525383)
(-0.00517177 0 -0.000344206)
(-0.00491279 0 -0.000237838)
(-0.00475413 0 -0.000203785)
(-0.00458126 0 -0.00014521)
(-0.00451127 0 -0.000182128)
(-0.00434939 0 -9.68942e-05)
(-0.0042638 0 -0.000106791)
(-0.00408528 0 -1.33916e-05)
(-0.00400135 0 -1.51316e-05)
(-0.00382829 0 -9.29732e-05)
(-0.00370405 0 -0.000166195)
(-0.00373739 0 -0.000214362)
(-0.00367723 0 -9.48856e-05)
(-0.00350123 0 0.000309625)
(-0.00351383 0 0.000494539)
(-0.00301547 0 0.000124792)
(-0.00284552 0 -0.000541852)
(-0.00152479 0 -0.00126601)
(-0.000824918 0 -0.000791738)
(5.47069e-05 0 -0.000702586)
(0.000510429 0 -0.000425176)
(0.000993766 0 -0.000346382)
(0.00132787 0 -0.000284413)
(0.00167312 0 -0.000195714)
(0.00193555 0 -0.000279697)
(0.00219319 0 -0.000141981)
(0.00236668 0 -0.00028992)
(0.00263519 0 -5.73875e-05)
(0.00274731 0 -0.000203785)
(0.00300795 0 -2.62128e-06)
(0.00322144 0 -0.000270123)
(0.00325997 0 -6.00011e-05)
(0.00332362 0 -0.000476488)
(0.00360992 0 0.000202977)
(0.00313862 0 0.000141166)
(0.00393144 0 0.000427469)
(0.00371044 0 0.000165789)
(0.00564551 0 -0.000270735)
(0.00515277 0 -0.00121974)
(0.00718102 0 -0.00169886)
(0.00878182 0 -0.00154065)
(0.00990048 0 -0.00115429)
(0.0108101 0 -0.000856426)
(0.0115708 0 -0.000665163)
(0.0122066 0 -0.000555339)
(0.0127595 0 -0.000469314)
(0.0132542 0 -0.000405394)
(0.0136993 0 -0.000356163)
(0.01411 0 -0.00033177)
(0.0145048 0 -0.000312766)
(0.0148804 0 -0.000289018)
(0.0152333 0 -0.000277204)
(0.0155754 0 -0.000266668)
(0.0159054 0 -0.000251872)
(0.0162225 0 -0.000250596)
(0.016536 0 -0.00024428)
(0.0168426 0 -0.00023418)
(0.0171357 0 -0.000223974)
(0.0174215 0 -0.000228694)
(0.0177114 0 -0.000227558)
(0.0179968 0 -0.000217267)
(0.0182688 0 -0.000208111)
(0.0185313 0 -0.000203997)
(0.0187913 0 -0.000204241)
(0.0190508 0 -0.000203581)
(0.0193072 0 -0.000199836)
(0.0195596 0 -0.000197249)
(0.0198077 0 -0.000193064)
(0.0200528 0 -0.000192827)
(0.0202931 0 -0.000182116)
(0.0205234 0 -0.00017782)
(0.0207515 0 -0.000183322)
(0.0209865 0 -0.000188175)
(0.0212259 0 -0.000189614)
(0.0214645 0 -0.000188188)
(0.0216995 0 -0.000183448)
(0.0219299 0 -0.000179188)
(0.0221557 0 -0.000175833)
(0.0223783 0 -0.00017392)
(0.0225986 0 -0.000172325)
(0.0228179 0 -0.000171668)
(0.023033 0 -0.000165488)
(0.0232439 0 -0.000170195)
(0.0234585 0 -0.000170443)
(0.0236711 0 -0.000161603)
(0.0238726 0 -0.00015345)
(0.0240662 0 -0.000149828)
(0.0242574 0 -0.000148137)
(0.0244478 0 -0.000148377)
(0.0246381 0 -0.000149287)
(0.0248287 0 -0.000149514)
(0.0250188 0 -0.000149004)
(0.0252078 0 -0.000147684)
(0.0253949 0 -0.00014575)
(0.0255794 0 -0.000143589)
(0.0257613 0 -0.000141496)
(0.0259412 0 -0.000140692)
(0.0261205 0 -0.000140576)
(0.0262995 0 -0.000140077)
(0.0264777 0 -0.00013941)
(0.0266534 0 -0.000136927)
(0.0268254 0 -0.000133607)
(0.0269948 0 -0.000131995)
(0.0271641 0 -0.00013298)
(0.0273347 0 -0.000133937)
(0.0275046 0 -0.000132088)
(0.0276708 0 -0.000128758)
(0.0278337 0 -0.000126053)
(0.0279971 0 -0.00013026)
(0.028165 0 -0.000124505)
(0.0283205 0 -0.000125524)
(0.0284916 0 -0.000129061)
(0.0286416 0 -0.000143283)
(0.0288583 0 -0.000145243)
(0.0289542 0 -0.000140423)
(0.0293647 0 -0.000137027)
(0.0289566 0 -0.000136427)
(0.0303047 0 -0.000139332)
(0.0288937 0 -0.000160483)
(0.06468 0 -0.0177261)
(0.115502 0 -0.0348127)
(0.130374 0 -0.0285229)
(0.134674 0 -0.0203231)
(0.131942 0 -0.0170732)
(0.130685 0 -0.012789)
(0.127927 0 -0.0105724)
(0.125736 0 -0.00806912)
(0.123755 0 -0.00761093)
(0.121953 0 -0.00923136)
(0.120138 0 -0.0118642)
(0.118614 0 -0.0122479)
(0.118175 0 -0.0106444)
(0.116478 0 -0.00473681)
(0.11263 0 0.00796471)
(0.106543 0 0.0222153)
(0.0960897 0 0.0346163)
(0.0811594 0 0.0404145)
(0.0715182 0 0.045738)
(0.0639378 0 0.0481679)
(0.0591456 0 0.0383021)
(0.0546339 0 0.0242896)
(0.0459758 0 0.0207942)
(0.0390763 0 0.0169284)
(0.0339759 0 0.0116714)
(0.028405 0 0.0113739)
(0.0233765 0 0.0134666)
(0.0180025 0 0.0143098)
(0.0121334 0 0.0149822)
(0.00618614 0 0.0142121)
(8.52387e-05 0 0.012455)
(-0.00485208 0 0.0117162)
(-0.00919695 0 0.0113386)
(-0.0126821 0 0.00861076)
(-0.0160823 0 0.00551048)
(-0.01923 0 0.0058117)
(-0.0228292 0 0.00899904)
(-0.0269547 0 0.0123313)
(-0.0313708 0 0.0136423)
(-0.0353211 0 0.0109265)
(-0.0395078 0 0.00653324)
(-0.0429417 0 0.00493418)
(-0.0454412 0 0.00583342)
(-0.0485939 0 0.00812013)
(-0.0527929 0 0.0106794)
(-0.0570602 0 0.0113261)
(-0.0613509 0 0.00971568)
(-0.0655312 0 0.00676473)
(-0.0690298 0 0.00496007)
(-0.071558 0 0.00465956)
(-0.0737572 0 0.00455661)
(-0.0759447 0 0.00454288)
(-0.0785571 0 0.00418245)
(-0.0811662 0 0.00526115)
(-0.0843933 0 0.00765277)
(-0.0878126 0 0.00945866)
(-0.0903828 0 0.00950148)
(-0.0925242 0 0.0081427)
(-0.0950026 0 0.00672597)
(-0.0977031 0 0.00635008)
(-0.101113 0 0.00718203)
(-0.104962 0 0.00777286)
(-0.10821 0 0.00640782)
(-0.110585 0 0.00266313)
(-0.11214 0 -0.00164839)
(-0.112435 0 -0.00345696)
(-0.112553 0 -0.00395604)
(-0.112835 0 -0.00401751)
(-0.11322 0 -0.0042429)
(-0.114027 0 -0.00564529)
(-0.115118 0 -0.00791426)
(-0.114794 0 -0.0121782)
(-0.113045 0 -0.0173994)
(-0.109634 0 -0.0214897)
(-0.104824 0 -0.0241446)
(-0.098669 0 -0.0249317)
(-0.0912451 0 -0.0236347)
(-0.0807932 0 -0.0199054)
(-0.0662531 0 -0.0144269)
(-0.055951 0 -0.00204293)
(-0.0479872 0 0.0122305)
(-0.0482748 0 0.0127804)
(-0.0391505 0 0.00893119)
(-0.0458566 0 0.00906321)
(-0.0465864 0 0.00767658)
(-0.0508684 0 0.00365866)
(-0.0515703 0 0.00110645)
(-0.0542846 0 0.00127813)
(-0.054636 0 5.03556e-05)
(-0.055465 0 0.00017086)
(-0.0550482 0 -0.000800099)
(-0.0550604 0 -0.0022711)
(-0.0551135 0 -0.00425874)
(-0.0549796 0 -0.00571701)
(-0.055324 0 -0.00851406)
(-0.0550336 0 -0.0112148)
(-0.0547495 0 -0.0133792)
(-0.0531863 0 -0.0156267)
(-0.049134 0 -0.0158946)
(-0.0443696 0 -0.0119583)
(-0.0348927 0 -0.00591748)
(-0.0274098 0 -0.00304606)
(-0.0190845 0 0.00302593)
(-0.0182796 0 0.00577018)
(-0.0155451 0 0.0071164)
(-0.016087 0 0.00366537)
(-0.01652 0 -0.000279771)
(-0.0178511 0 5.27475e-05)
(-0.0195436 0 0.000315772)
(-0.0213329 0 0.00126199)
(-0.021561 0 0.00173027)
(-0.0217276 0 0.00179743)
(-0.0222586 0 0.000593002)
(-0.0225937 0 -0.000554867)
(-0.0233721 0 -0.00172173)
(-0.0242053 0 -0.00267864)
(-0.0245277 0 -0.0034608)
(-0.0252445 0 -0.00285755)
(-0.023471 0 -0.000869409)
(-0.0222747 0 -0.000910778)
(-0.018973 0 0.000831147)
(-0.0196046 0 0.00218887)
(-0.0191113 0 0.00371439)
(-0.0199645 0 0.00301644)
(-0.0203379 0 0.00144576)
(-0.0214893 0 0.0014416)
(-0.0227605 0 0.0013484)
(-0.0234896 0 0.00173744)
(-0.0241059 0 0.00198076)
(-0.0248014 0 0.00189265)
(-0.0253962 0 0.00156311)
(-0.0261618 0 0.00156494)
(-0.0269115 0 0.00140447)
(-0.027548 0 0.00157741)
(-0.0281964 0 0.00155003)
(-0.0288323 0 0.00164418)
(-0.0294598 0 0.00157576)
(-0.0300888 0 0.00150555)
(-0.0307106 0 0.00146952)
(-0.0313404 0 0.00142531)
(-0.0319246 0 0.00142662)
(-0.0325141 0 0.00137338)
(-0.0330701 0 0.001328)
(-0.033611 0 0.0012483)
(-0.0341237 0 0.001176)
(-0.0346124 0 0.00111449)
(-0.0350901 0 0.00109426)
(-0.0355554 0 0.00106146)
(-0.0359926 0 0.00102321)
(-0.0363952 0 0.000945506)
(-0.0367676 0 0.000851481)
(-0.037123 0 0.000797804)
(-0.0374651 0 0.000767958)
(-0.0377925 0 0.000729894)
(-0.038091 0 0.000676327)
(-0.0383543 0 0.00060761)
(-0.0385915 0 0.00055358)
(-0.0388161 0 0.000502684)
(-0.0390268 0 0.000450786)
(-0.0392148 0 0.000397078)
(-0.039377 0 0.000339677)
(-0.0395131 0 0.000291848)
(-0.0396313 0 0.000257441)
(-0.0397255 0 0.00019626)
(-0.0397905 0 0.00011756)
(-0.03983 0 6.31257e-05)
(-0.0398537 0 3.4269e-05)
(-0.0398605 0 -4.83331e-06)
(-0.0398404 0 -8.06867e-05)
(-0.0397914 0 -0.000161801)
(-0.0397112 0 -0.000212414)
(-0.039616 0 -0.000242197)
(-0.0395032 0 -0.000281204)
(-0.0393651 0 -0.000339579)
(-0.0392034 0 -0.000419093)
(-0.0390165 0 -0.000483595)
(-0.0388023 0 -0.000529147)
(-0.038568 0 -0.000565596)
(-0.0383111 0 -0.000616494)
(-0.0380325 0 -0.000668633)
(-0.0377423 0 -0.000701726)
(-0.0374346 0 -0.000739423)
(-0.0371065 0 -0.000790987)
(-0.036756 0 -0.000857133)
(-0.0363764 0 -0.000926451)
(-0.0359733 0 -0.000968941)
(-0.0355539 0 -0.000995919)
(-0.0351178 0 -0.00101774)
(-0.0346737 0 -0.00104576)
(-0.0342191 0 -0.00109619)
(-0.0337462 0 -0.00114949)
(-0.0332538 0 -0.00120095)
(-0.0327346 0 -0.00124282)
(-0.0321936 0 -0.0012658)
(-0.0316378 0 -0.00129129)
(-0.0310719 0 -0.00132407)
(-0.030498 0 -0.0013656)
(-0.0299089 0 -0.00142664)
(-0.0292928 0 -0.00149202)
(-0.0286498 0 -0.00153471)
(-0.0279959 0 -0.00154518)
(-0.0273335 0 -0.0015539)
(-0.0266573 0 -0.00159164)
(-0.025955 0 -0.00165503)
(-0.0252273 0 -0.00173051)
(-0.0244855 0 -0.00178699)
(-0.0237304 0 -0.00181356)
(-0.0229616 0 -0.00183237)
(-0.0221725 0 -0.00186683)
(-0.0213551 0 -0.00193173)
(-0.0205191 0 -0.00200435)
(-0.0196703 0 -0.00203232)
(-0.0188263 0 -0.00200813)
(-0.0179754 0 -0.00200296)
(-0.0170999 0 -0.00207896)
(-0.0162067 0 -0.0021543)
(-0.0152996 0 -0.00218047)
(-0.0143963 0 -0.00217925)
(-0.0134897 0 -0.00212202)
(-0.0126036 0 -0.00205313)
(-0.0117287 0 -0.00203707)
(-0.0108667 0 -0.00205293)
(-0.0100037 0 -0.0020689)
(-0.0091476 0 -0.00203777)
(-0.00831601 0 -0.00196953)
(-0.0075044 0 -0.0018551)
(-0.00672596 0 -0.00176569)
(-0.00597883 0 -0.00171125)
(-0.00526477 0 -0.00166732)
(-0.00456821 0 -0.00163775)
(-0.00389559 0 -0.00158589)
(-0.00324698 0 -0.00150006)
(-0.00263087 0 -0.00138558)
(-0.00205159 0 -0.0013109)
(-0.00150217 0 -0.00127094)
(-0.000969132 0 -0.00122597)
(-0.000452353 0 -0.00118309)
(4.37636e-05 0 -0.00113955)
(0.000516167 0 -0.00108331)
(0.00096315 0 -0.0010282)
(0.00138258 0 -0.00098038)
(0.00178056 0 -0.000932126)
(0.00216596 0 -0.000885976)
(0.00254267 0 -0.000854364)
(0.00291199 0 -0.000838474)
(0.00326918 0 -0.000830285)
(0.00361306 0 -0.000817378)
(0.00394643 0 -0.000791883)
(0.00426959 0 -0.000740831)
(0.00458221 0 -0.000713992)
(0.00489089 0 -0.000725755)
(0.0052007 0 -0.000734566)
(0.00550866 0 -0.000726552)
(0.00580802 0 -0.000714803)
(0.00610249 0 -0.000696211)
(0.0063962 0 -0.000686495)
(0.00669422 0 -0.000693263)
(0.00699377 0 -0.000699228)
(0.00729299 0 -0.000703082)
(0.00759021 0 -0.000706642)
(0.00788276 0 -0.000704115)
(0.00817736 0 -0.000705635)
(0.0084817 0 -0.000715324)
(0.00879189 0 -0.000727754)
(0.00910363 0 -0.000743199)
(0.00941937 0 -0.000749797)
(0.0097341 0 -0.000743074)
(0.0100485 0 -0.00073696)
(0.0103664 0 -0.000745913)
(0.0106894 0 -0.000768199)
(0.0110202 0 -0.00078533)
(0.0113541 0 -0.000792772)
(0.0116899 0 -0.000798705)
(0.0120267 0 -0.000800123)
(0.0123672 0 -0.000795581)
(0.0127102 0 -0.000798885)
(0.013054 0 -0.000807308)
(0.0133989 0 -0.000815149)
(0.0137451 0 -0.000821578)
(0.0140944 0 -0.000825381)
(0.0144455 0 -0.000828791)
(0.0147982 0 -0.000829416)
(0.0151493 0 -0.000819732)
(0.0154963 0 -0.000810405)
(0.0158435 0 -0.00081368)
(0.0161913 0 -0.000816453)
(0.0165382 0 -0.000812241)
(0.0168815 0 -0.00080542)
(0.0172212 0 -0.000798285)
(0.0175584 0 -0.000787309)
(0.017892 0 -0.000773672)
(0.0182209 0 -0.000763122)
(0.0185454 0 -0.000753798)
(0.0188639 0 -0.000742558)
(0.019176 0 -0.000729603)
(0.0194822 0 -0.00071344)
(0.0197825 0 -0.000693321)
(0.0200763 0 -0.00067406)
(0.0203609 0 -0.000654641)
(0.0206348 0 -0.000635683)
(0.0209 0 -0.00061805)
(0.0211581 0 -0.000595445)
(0.0214075 0 -0.000568243)
(0.0216464 0 -0.000543444)
(0.0218721 0 -0.000519438)
(0.0220866 0 -0.000494932)
(0.0222925 0 -0.000467909)
(0.0224872 0 -0.000438566)
(0.0226682 0 -0.00040944)
(0.022836 0 -0.000382453)
(0.0229923 0 -0.000355033)
(0.0231367 0 -0.000323021)
(0.0232681 0 -0.000287881)
(0.0233843 0 -0.00025549)
(0.0234863 0 -0.000226753)
(0.0235761 0 -0.000196734)
(0.0236526 0 -0.000163206)
(0.0237155 0 -0.0001289)
(0.0237636 0 -9.53711e-05)
(0.0237964 0 -6.2497e-05)
(0.0238148 0 -2.96911e-05)
(0.0238192 0 4.99601e-06)
(0.0238096 0 4.0659e-05)
(0.0237855 0 7.44322e-05)
(0.0237465 0 0.000107598)
(0.0236917 0 0.000142772)
(0.0236216 0 0.000180373)
(0.0235366 0 0.000216835)
(0.023437 0 0.000250489)
(0.0233227 0 0.000284013)
(0.0231927 0 0.000319266)
(0.0230469 0 0.000358435)
(0.0228854 0 0.00039869)
(0.0227083 0 0.000434629)
(0.0225165 0 0.000466849)
(0.0223102 0 0.000498855)
(0.0220891 0 0.000532376)
(0.0218539 0 0.000566392)
(0.0216052 0 0.000601361)
(0.0213426 0 0.000635137)
(0.0210658 0 0.000665832)
(0.0207752 0 0.000694897)
(0.0204726 0 0.000723291)
(0.0201572 0 0.000753678)
(0.0198289 0 0.000784715)
(0.0194901 0 0.000811746)
(0.0191405 0 0.000835507)
(0.01878 0 0.000857898)
(0.018409 0 0.000881492)
(0.018028 0 0.000907198)
(0.0176377 0 0.000931822)
(0.0172384 0 0.000951263)
(0.0168305 0 0.000967441)
(0.0164147 0 0.000987129)
(0.0159915 0 0.00100739)
(0.0155611 0 0.00102358)
(0.015123 0 0.00103796)
(0.0146781 0 0.00105181)
(0.0142286 0 0.00106448)
(0.0137742 0 0.00107624)
(0.0133152 0 0.00108662)
(0.0128515 0 0.00109637)
(0.012384 0 0.00110448)
(0.0119135 0 0.00111336)
(0.0114401 0 0.00112085)
(0.0109646 0 0.00112686)
(0.0104871 0 0.00112898)
(0.010008 0 0.00113063)
(0.00952825 0 0.00113151)
(0.00904782 0 0.00113319)
(0.00856799 0 0.00113288)
(0.00808869 0 0.00112978)
(0.00761123 0 0.00112351)
(0.00713642 0 0.00111647)
(0.00666454 0 0.00111056)
(0.00619551 0 0.00110292)
(0.00572992 0 0.0010941)
(0.00526771 0 0.00108342)
(0.00481156 0 0.00107361)
(0.00436076 0 0.00106108)
(0.00391615 0 0.00104655)
(0.00347691 0 0.00102709)
(0.00304534 0 0.00100961)
(0.00262119 0 0.000990482)
(0.00220458 0 0.000973116)
(0.00179654 0 0.000951966)
(0.00139687 0 0.000933534)
(0.00100733 0 0.000907909)
(0.000627158 0 0.000884449)
(0.000256675 0 0.000858477)
(-0.00010398 0 0.000837147)
(-0.000452679 0 0.000810318)
(-0.000791483 0 0.000784659)
(-0.00111972 0 0.000756857)
(-0.00143876 0 0.000732523)
(-0.00174573 0 0.000705096)
(-0.00204205 0 0.000680606)
(-0.0023268 0 0.000656502)
(-0.00260103 0 0.000631575)
(-0.00286482 0 0.000606661)
(-0.00312 0 0.0005772)
(-0.00336115 0 0.000551096)
(-0.00359443 0 0.000523061)
(-0.00381387 0 0.000501978)
(-0.00402459 0 0.00047209)
(-0.00422136 0 0.000453381)
(-0.00441185 0 0.000417278)
(-0.00458755 0 0.000397971)
(-0.00475867 0 0.000362821)
(-0.00491228 0 0.000350678)
(-0.00505808 0 0.000321643)
(-0.00518974 0 0.000307848)
(-0.00531026 0 0.000280659)
(-0.00542335 0 0.000250823)
(-0.00552372 0 0.000224228)
(-0.00563007 0 0.000203855)
(-0.00571426 0 0.000190179)
(-0.00578581 0 0.00019113)
(-0.0058432 0 0.000177803)
(-0.00587761 0 0.000117297)
(-0.00592924 0 7.8537e-05)
(-0.00600616 0 2.85343e-05)
(-0.00606227 0 5.16808e-05)
(-0.00610837 0 0.000157904)
(-0.00608111 0 0.0001866)
(-0.00596331 0 8.22257e-05)
(-0.00586178 0 -8.48515e-05)
(-0.0054917 0 -0.000377322)
(-0.00522671 0 -0.000352052)
(-0.00495418 0 -0.000578484)
(-0.0049408 0 -0.000663822)
(-0.00487165 0 -0.000567792)
(-0.004828 0 -0.000433493)
(-0.00472441 0 -0.000309818)
(-0.00459261 0 -0.000242676)
(-0.00448215 0 -0.000178815)
(-0.00428582 0 -0.000294432)
(-0.00417701 0 -0.000307018)
(-0.00399631 0 -0.00040009)
(-0.00409237 0 -0.000388425)
(-0.00399801 0 -0.000374941)
(-0.00385669 0 2.31247e-05)
(-0.00363448 0 0.00017346)
(-0.00306239 0 -0.000276612)
(-0.00274833 0 -0.000562618)
(-0.00147635 0 -0.00125992)
(-0.000811278 0 -0.00117237)
(8.17277e-05 0 -0.00179995)
(0.000170205 0 -0.00191789)
(0.000481925 0 -0.0016808)
(0.000662327 0 -0.00140516)
(0.00101953 0 -0.00104079)
(0.00120233 0 -0.000946731)
(0.00154079 0 -0.000772493)
(0.00170729 0 -0.000768726)
(0.00202648 0 -0.000528094)
(0.0021828 0 -0.000546184)
(0.00250771 0 -0.000397239)
(0.00277789 0 -0.000549784)
(0.00286385 0 -0.00036738)
(0.00295325 0 -0.000755428)
(0.00320646 0 -0.000107053)
(0.00291705 0 -0.000125644)
(0.0037582 0 -7.85415e-05)
(0.00362257 0 8.44055e-05)
(0.00624365 0 -0.000607041)
(0.00546971 0 -0.00127807)
(0.00762191 0 -0.00272269)
(0.00870098 0 -0.00209215)
(0.0098444 0 -0.00223364)
(0.0102769 0 -0.00306102)
(0.010685 0 -0.00301392)
(0.0112374 0 -0.00238572)
(0.0117281 0 -0.0018735)
(0.0121955 0 -0.00153981)
(0.0126463 0 -0.00135137)
(0.0130793 0 -0.00120718)
(0.0134945 0 -0.00108776)
(0.0138909 0 -0.000993565)
(0.0142744 0 -0.000948878)
(0.0146471 0 -0.000908137)
(0.0150054 0 -0.000851716)
(0.0153496 0 -0.000822148)
(0.0156842 0 -0.000795699)
(0.0160102 0 -0.000758294)
(0.0163278 0 -0.00075043)
(0.0166389 0 -0.000732638)
(0.0169438 0 -0.000707176)
(0.0172425 0 -0.000681286)
(0.0175353 0 -0.000686384)
(0.0178238 0 -0.000680117)
(0.0181069 0 -0.000654475)
(0.0183835 0 -0.000630803)
(0.0186546 0 -0.000619103)
(0.0189211 0 -0.000614532)
(0.019183 0 -0.000608763)
(0.0194405 0 -0.000598768)
(0.0196954 0 -0.000592988)
(0.0199465 0 -0.000579531)
(0.020192 0 -0.000573638)
(0.0204323 0 -0.000550493)
(0.0206709 0 -0.000541378)
(0.0209071 0 -0.00055053)
(0.0211416 0 -0.000559287)
(0.0213743 0 -0.000560879)
(0.0216043 0 -0.00055563)
(0.0218322 0 -0.000547203)
(0.0220585 0 -0.000537551)
(0.0222823 0 -0.000529022)
(0.0225036 0 -0.00052322)
(0.0227227 0 -0.000518218)
(0.0229391 0 -0.000512373)
(0.023152 0 -0.000498959)
(0.0233613 0 -0.000504244)
(0.023569 0 -0.000502856)
(0.0237728 0 -0.000483405)
(0.0239737 0 -0.000465811)
(0.0241727 0 -0.000456838)
(0.0243696 0 -0.000452246)
(0.0245644 0 -0.000450644)
(0.0247569 0 -0.000450084)
(0.0249474 0 -0.000448951)
(0.0251363 0 -0.000446899)
(0.025324 0 -0.00044332)
(0.0255103 0 -0.000437979)
(0.0256945 0 -0.000431804)
(0.0258766 0 -0.000426599)
(0.0260569 0 -0.000423922)
(0.0262357 0 -0.000423082)
(0.0264136 0 -0.000421575)
(0.0265898 0 -0.000416548)
(0.0267629 0 -0.000408327)
(0.0269338 0 -0.000401991)
(0.0271045 0 -0.000400614)
(0.0272756 0 -0.000402215)
(0.0274455 0 -0.000401869)
(0.0276125 0 -0.000394075)
(0.0277776 0 -0.000388835)
(0.0279446 0 -0.000386279)
(0.0281111 0 -0.000393079)
(0.0282794 0 -0.000380189)