/*--------------------------------*- C++ -*----------------------------------*\
| =========                 |                                                 |
| \\      /  F ield         | OpenFOAM: The Open Source CFD Toolbox           |
|  \\    /   O peration     | Version:  v2006                                 |
|   \\  /    A nd           | Website:  www.openfoam.com                      |
|    \\/     M anipulation  |                                                 |
\*---------------------------------------------------------------------------*/
FoamFile
{
    version     2.0;
    format      ascii;
    class       surfaceScalarField;
    location    "0.4";
    object      alphaPhi0.water;
}
// * * * * * * * * * * * * * * * * * * * * * * * * * * * * * * * * * * * * * //

dimensions      [0 3 -1 0 0 0 0];
oriented        oriented;


internalField   nonuniform List<scalar> 
65390
(
1.84082e-06
-3.42755e-08
1.86308e-06
3.19852e-09
1.88333e-06
3.44887e-09
1.9032e-06
-6.28924e-10
1.92185e-06
-3.32221e-09
1.93911e-06
-5.17298e-09
1.95495e-06
-6.40207e-09
1.96998e-06
-7.68627e-09
1.98445e-06
-8.84536e-09
1.99785e-06
-9.18243e-09
2.01004e-06
-9.13575e-09
2.02086e-06
-8.95873e-09
2.03058e-06
-8.73082e-09
2.03943e-06
-8.32106e-09
2.04728e-06
-7.73491e-09
2.05391e-06
-7.09925e-09
2.05937e-06
-6.46696e-09
2.06383e-06
-5.83832e-09
2.06744e-06
-5.19172e-09
2.07014e-06
-4.49175e-09
2.07177e-06
-3.74112e-09
2.07226e-06
-2.94637e-09
2.07168e-06
-2.16242e-09
2.07011e-06
-1.3893e-09
2.06756e-06
-6.03796e-10
2.06402e-06
1.99296e-10
2.05949e-06
1.00153e-09
2.054e-06
1.80957e-09
2.04759e-06
2.6324e-09
2.04029e-06
3.46253e-09
2.03211e-06
4.29683e-09
2.02305e-06
5.15675e-09
2.01305e-06
6.06563e-09
2.0021e-06
7.03419e-09
1.9902e-06
8.0713e-09
1.9774e-06
9.17714e-09
1.96377e-06
1.03494e-08
1.94939e-06
1.15722e-08
1.93434e-06
1.28052e-08
1.91871e-06
1.39871e-08
1.90255e-06
1.50694e-08
1.88584e-06
1.60207e-08
1.86859e-06
1.68226e-08
1.85076e-06
1.74542e-08
1.83239e-06
1.79102e-08
1.81353e-06
1.82174e-08
1.79427e-06
1.83682e-08
1.77472e-06
1.84455e-08
1.75498e-06
1.84866e-08
1.73514e-06
1.85092e-08
1.71527e-06
1.85487e-08
1.69543e-06
1.86304e-08
1.67561e-06
1.87769e-08
1.65577e-06
1.90078e-08
1.63583e-06
1.93322e-08
1.61573e-06
1.97347e-08
1.59538e-06
2.01873e-08
1.57474e-06
2.06601e-08
1.55375e-06
2.11395e-08
1.53233e-06
2.16297e-08
1.51041e-06
2.21337e-08
1.48792e-06
2.26599e-08
1.46479e-06
2.3211e-08
1.44098e-06
2.38131e-08
1.4164e-06
2.45049e-08
1.39096e-06
2.53241e-08
1.36453e-06
2.63015e-08
1.33696e-06
2.74914e-08
1.30795e-06
2.90021e-08
1.27709e-06
3.09797e-08
1.24375e-06
3.35987e-08
1.20698e-06
3.71835e-08
1.1651e-06
4.2392e-08
1.11535e-06
5.03103e-08
1.05315e-06
6.27078e-08
9.7073e-07
8.27783e-08
8.55619e-07
1.15229e-07
6.81882e-07
1.73757e-07
5.3394e-07
1.48058e-07
4.89992e-07
4.42814e-08
4.60368e-07
2.99661e-08
4.6621e-07
-5.50238e-09
4.57934e-07
8.58953e-09
4.61072e-07
-2.85532e-09
4.69614e-07
-8.23736e-09
4.60733e-07
9.04009e-09
4.53795e-07
7.00469e-09
4.4766e-07
6.32338e-09
4.45191e-07
2.86882e-09
4.41146e-07
4.62764e-09
4.38349e-07
3.47277e-09
4.35829e-07
3.23508e-09
4.32003e-07
4.57736e-09
4.28093e-07
4.66946e-09
4.23888e-07
4.90739e-09
4.1912e-07
5.36824e-09
4.13873e-07
5.73801e-09
4.08167e-07
6.09497e-09
4.0115e-07
7.31713e-09
3.94161e-07
7.22989e-09
3.88361e-07
6.0159e-09
3.83375e-07
5.20093e-09
3.78754e-07
4.84711e-09
3.73636e-07
5.35439e-09
3.68736e-07
5.13459e-09
3.63727e-07
5.22724e-09
3.58326e-07
5.58381e-09
3.52802e-07
5.64846e-09
3.47176e-07
5.67943e-09
3.41465e-07
5.68727e-09
3.35607e-07
5.75698e-09
3.29629e-07
5.80584e-09
3.23521e-07
5.88313e-09
3.17237e-07
6.02261e-09
3.10636e-07
6.32397e-09
3.03699e-07
6.66546e-09
2.95475e-07
7.97618e-09
2.8758e-07
7.68694e-09
2.81417e-07
6.00585e-09
2.7658e-07
4.73336e-09
2.72436e-07
4.09519e-09
2.67888e-07
4.55617e-09
2.63747e-07
4.20125e-09
2.59731e-07
4.12523e-09
2.55526e-07
4.35536e-09
2.51422e-07
4.28651e-09
2.4739e-07
4.23699e-09
2.4337e-07
4.23976e-09
2.39399e-07
4.19695e-09
2.35466e-07
4.1606e-09
2.31556e-07
4.13341e-09
2.27683e-07
4.09096e-09
2.23837e-07
4.05475e-09
2.2002e-07
4.01804e-09
2.16243e-07
3.96883e-09
2.12511e-07
3.91496e-09
2.08817e-07
3.86871e-09
2.05155e-07
3.82847e-09
2.0153e-07
3.78307e-09
1.97951e-07
3.72972e-09
1.9442e-07
3.67468e-09
1.9093e-07
3.6271e-09
1.87479e-07
3.58294e-09
1.84075e-07
3.53136e-09
1.80716e-07
3.48121e-09
1.77396e-07
3.43874e-09
1.74115e-07
3.39592e-09
1.70879e-07
3.34552e-09
1.67691e-07
3.29464e-09
1.64544e-07
3.25e-09
1.61437e-07
3.2062e-09
1.58375e-07
3.15881e-09
1.55355e-07
3.11363e-09
1.52374e-07
3.07207e-09
1.49435e-07
3.0282e-09
1.46538e-07
2.98182e-09
1.43683e-07
2.93753e-09
1.40867e-07
2.89407e-09
1.38091e-07
2.84951e-09
1.35351e-07
2.8083e-09
1.32644e-07
2.7712e-09
1.29974e-07
2.73005e-09
1.27346e-07
2.68249e-09
1.24758e-07
2.63714e-09
1.22203e-07
2.59859e-09
1.1968e-07
2.56047e-09
1.17194e-07
2.517e-09
1.14746e-07
2.47274e-09
1.12329e-07
2.43491e-09
1.0994e-07
2.40076e-09
1.07584e-07
2.36068e-09
1.05267e-07
2.31586e-09
1.02985e-07
2.27644e-09
1.00733e-07
2.24143e-09
9.85173e-08
2.20209e-09
9.63401e-08
2.16e-09
9.41977e-08
2.12267e-09
9.2088e-08
2.08835e-09
9.00144e-08
2.05096e-09
8.79789e-08
2.01224e-09
8.59786e-08
1.97677e-09
8.40132e-08
1.94174e-09
8.20868e-08
1.90248e-09
8.02014e-08
1.86124e-09
7.83537e-08
1.82282e-09
7.65415e-08
1.78654e-09
7.47656e-08
1.7491e-09
7.30269e-08
1.71067e-09
7.13236e-08
1.67378e-09
6.96541e-08
1.63833e-09
6.80194e-08
1.60192e-09
6.64215e-08
1.5634e-09
6.48609e-08
1.52442e-09
6.33356e-08
1.48743e-09
6.18432e-08
1.4528e-09
6.03833e-08
1.41901e-09
5.89555e-08
1.38566e-09
5.75592e-08
1.3536e-09
5.61935e-08
1.32266e-09
5.48587e-08
1.29231e-09
5.35542e-08
1.263e-09
5.22796e-08
1.23468e-09
5.1035e-08
1.20671e-09
4.98202e-08
1.17922e-09
4.86347e-08
1.15242e-09
4.7479e-08
1.12545e-09
4.63538e-08
1.09802e-09
4.52586e-08
1.07124e-09
4.41931e-08
1.04486e-09
4.31585e-08
1.01768e-09
4.21539e-08
9.91407e-10
4.1175e-08
9.69464e-10
4.02181e-08
9.51347e-10
3.92831e-08
9.3334e-10
3.83706e-08
9.14817e-10
3.74785e-08
8.98155e-10
3.6605e-08
8.83183e-10
3.57518e-08
8.66426e-10
3.49212e-08
8.46992e-10
3.41122e-08
8.28451e-10
3.33219e-08
8.12462e-10
3.25502e-08
7.96461e-10
3.17981e-08
7.79265e-10
3.1064e-08
7.63432e-10
3.03448e-08
7.50543e-10
2.964e-08
7.38046e-10
2.89517e-08
7.23184e-10
2.82811e-08
7.07075e-10
2.76272e-08
6.91658e-10
2.69893e-08
6.76851e-10
2.63677e-08
6.61778e-10
2.57622e-08
6.46859e-10
2.51721e-08
6.32787e-10
2.45971e-08
6.1921e-10
2.40369e-08
6.05914e-10
2.34906e-08
5.93758e-10
2.29565e-08
5.83091e-10
2.24344e-08
5.72525e-10
2.19256e-08
5.6033e-10
2.14312e-08
5.46572e-10
2.09509e-08
5.32788e-10
2.04832e-08
5.20244e-10
2.00261e-08
5.09396e-10
1.95784e-08
5.00107e-10
1.91387e-08
4.92153e-10
1.87075e-08
4.84478e-10
1.82859e-08
4.75985e-10
1.78749e-08
4.67295e-10
1.74733e-08
4.60272e-10
1.70792e-08
4.55332e-10
1.66928e-08
4.50095e-10
1.63168e-08
4.41818e-10
1.59532e-08
4.31006e-10
1.55999e-08
4.21176e-10
1.52529e-08
4.14486e-10
1.49105e-08
4.08711e-10
1.45749e-08
4.00066e-10
1.42493e-08
3.88008e-10
1.39337e-08
3.75825e-10
1.36255e-08
3.66846e-10
1.33218e-08
3.61114e-10
1.30221e-08
3.56517e-10
1.2727e-08
3.51785e-10
1.24368e-08
3.4695e-10
1.21517e-08
3.4172e-10
1.18723e-08
3.35413e-10
1.15989e-08
3.28272e-10
1.13308e-08
3.21078e-10
1.10676e-08
3.13491e-10
1.081e-08
3.04652e-10
1.05591e-08
2.94573e-10
1.0314e-08
2.85245e-10
1.00732e-08
2.77994e-10
9.83569e-09
2.72327e-10
9.60179e-09
2.67455e-10
9.37188e-09
2.63352e-10
9.14631e-09
2.60108e-10
8.92563e-09
2.57432e-10
8.71018e-09
2.553e-10
8.49954e-09
2.54146e-10
8.29302e-09
2.53838e-10
8.09089e-09
2.53007e-10
7.89439e-09
2.50316e-10
7.70462e-09
2.4564e-10
7.52138e-09
2.40145e-10
7.34344e-09
2.34856e-10
7.16986e-09
2.29565e-10
7.00047e-09
2.2367e-10
6.83544e-09
2.17068e-10
6.67464e-09
2.10218e-10
6.5177e-09
2.03585e-10
6.36415e-09
1.97389e-10
6.21336e-09
1.91893e-10
6.06424e-09
1.87649e-10
5.91553e-09
1.84842e-10
5.7664e-09
1.8309e-10
5.61699e-09
1.8145e-10
5.4682e-09
1.7919e-10
5.32097e-09
1.76297e-10
5.17572e-09
1.73293e-10
5.03252e-09
1.70549e-10
4.89166e-09
1.67844e-10
4.75407e-09
1.64492e-10
4.62118e-09
1.59965e-10
4.49435e-09
1.54293e-10
4.37425e-09
1.48063e-10
4.26079e-09
1.42019e-10
4.15316e-09
1.36782e-10
4.05017e-09
1.32712e-10
3.95036e-09
1.30012e-10
3.85231e-09
1.28646e-10
3.75484e-09
1.2834e-10
3.65692e-09
1.28954e-10
3.55812e-09
1.299e-10
3.45864e-09
1.30549e-10
3.35927e-09
1.3036e-10
3.26119e-09
1.28943e-10
3.16578e-09
1.26108e-10
3.07433e-09
1.21988e-10
2.98771e-09
1.17021e-10
2.9063e-09
1.11671e-10
2.83038e-09
1.0609e-10
2.76025e-09
1.00233e-10
2.69604e-09
9.4276e-11
2.63696e-09
8.91312e-11
2.58082e-09
8.62242e-11
2.52437e-09
8.65641e-11
2.46543e-09
8.91211e-11
2.40406e-09
9.16107e-11
2.34223e-09
9.21586e-11
2.28164e-09
9.0987e-11
2.22304e-09
8.90844e-11
2.16723e-09
8.63594e-11
2.11654e-09
8.13093e-11
2.07385e-09
7.33733e-11
2.03991e-09
6.46717e-11
2.01214e-09
5.85406e-11
1.98693e-09
5.60071e-11
1.96248e-09
5.52485e-11
1.9384e-09
5.48622e-11
1.91375e-09
5.5403e-11
1.88642e-09
5.80154e-11
1.8549e-09
6.21199e-11
1.82016e-09
6.52088e-11
1.78463e-09
6.58503e-11
1.74995e-09
6.48025e-11
1.71687e-09
6.29647e-11
1.68648e-09
6.00178e-11
1.65984e-09
5.59543e-11
1.63664e-09
5.21908e-11
1.61527e-09
5.00277e-11
1.5941e-09
4.94853e-11
1.57174e-09
5.03548e-11
1.54646e-09
5.29369e-11
1.51699e-09
5.68141e-11
1.48387e-09
6.01253e-11
1.44933e-09
6.11816e-11
1.41541e-09
6.01583e-11
1.38321e-09
5.79654e-11
1.3536e-09
5.4858e-11
1.32748e-09
5.08138e-11
1.30462e-09
4.69754e-11
1.28308e-09
4.50785e-11
1.26008e-09
4.59808e-11
1.23367e-09
4.88843e-11
1.20335e-09
5.23345e-11
1.16965e-09
5.52891e-11
1.13359e-09
5.72662e-11
1.09675e-09
5.76853e-11
1.06125e-09
5.59857e-11
1.02905e-09
5.23192e-11
1.0008e-09
4.79692e-11
9.75556e-10
4.45382e-11
9.51579e-10
4.27983e-11
9.27598e-10
4.22905e-11
9.03282e-10
4.20761e-11
8.78624e-10
4.18297e-11
8.53453e-10
4.17213e-11
8.28215e-10
4.11309e-11
8.04847e-10
3.85747e-11
7.85729e-10
3.36088e-11
7.7158e-10
2.79042e-11
7.60664e-10
2.3918e-11
7.50227e-10
2.26816e-11
7.37838e-10
2.38801e-11
7.21672e-10
2.69148e-11
7.01732e-10
2.99625e-11
6.7985e-10
3.11903e-11
6.58442e-10
3.00106e-11
6.3937e-10
2.69659e-11
6.23395e-10
2.31504e-11
6.09693e-10
2.0144e-11
5.95995e-10
1.93967e-11
5.79768e-10
2.11851e-11
5.59296e-10
2.47143e-11
5.34096e-10
2.8778e-11
5.05223e-10
3.18611e-11
4.7554e-10
3.21737e-11
4.48793e-10
2.88438e-11
4.27419e-10
2.3173e-11
4.10825e-10
1.81756e-11
3.9619e-10
1.60538e-11
3.81326e-10
1.61449e-11
3.65949e-10
1.65199e-11
3.49931e-10
1.70012e-11
3.33584e-10
1.71411e-11
3.19224e-10
1.49347e-11
3.08459e-10
1.11067e-11
2.99952e-10
8.61654e-12
2.90928e-10
8.92667e-12
2.79668e-10
1.10018e-11
2.66342e-10
1.29646e-11
2.53249e-10
1.26965e-11
2.42593e-10
1.02881e-11
2.34497e-10
7.8091e-12
2.28104e-10
6.22442e-12
2.22928e-10
5.14223e-12
2.17188e-10
5.83978e-12
2.10523e-10
6.87651e-12
2.04087e-10
6.72768e-12
1.98926e-10
5.49422e-12
1.9039e-10
8.8706e-12
1.77006e-10
1.36841e-11
1.61372e-10
1.5869e-11
1.43787e-10
1.77333e-11
1.28874e-10
1.49645e-11
1.17791e-10
1.10349e-11
1.07649e-10
1.00044e-11
9.79629e-11
9.47349e-12
8.66877e-11
1.10079e-11
7.8457e-11
7.92889e-12
7.48433e-11
3.29645e-12
7.9179e-11
-4.64988e-12
8.56006e-11
-6.71786e-12
9.07002e-11
-5.36517e-12
9.01036e-11
3.70819e-13
8.55732e-11
4.34774e-12
8.45357e-11
8.95206e-13
8.17676e-11
2.65955e-12
8.92744e-11
-7.59148e-12
8.96204e-11
-4.23785e-13
7.69794e-11
1.25463e-11
6.52234e-11
1.16247e-11
5.44927e-11
1.05511e-11
5.21714e-11
2.07904e-12
4.51113e-11
6.73604e-12
3.82711e-11
6.42347e-12
4.09468e-11
-3.1952e-12
4.78303e-11
-7.54364e-12
6.68944e-11
-1.98939e-11
6.983e-11
-3.93925e-12
8.48254e-11
-1.62183e-11
8.45316e-11
-1.16361e-12
8.1831e-11
1.05097e-12
7.03065e-11
9.64047e-12
6.63834e-11
1.73132e-12
8.41768e-11
-2.02589e-11
7.81014e-11
3.39389e-12
9.2219e-11
-1.70233e-11
1.17527e-10
-2.85297e-11
1.17345e-10
-3.29192e-12
1.20244e-10
-6.6315e-12
1.18198e-10
-2.00897e-12
1.30852e-10
-1.69719e-11
1.20296e-10
6.09147e-12
1.32312e-10
-1.66679e-11
1.45874e-10
-1.83629e-11
1.53381e-10
-1.50555e-11
2.23941e-10
-7.77694e-11
2.54424e-10
-4.0088e-11
2.40696e-10
-4.44505e-13
2.37479e-10
-1.02868e-11
2.12288e-10
1.16438e-11
1.84935e-10
1.35868e-11
1.58872e-10
1.20679e-11
1.24042e-10
2.0658e-11
7.92312e-11
3.05248e-11
2.90401e-11
3.58557e-11
-2.43153e-11
3.90288e-11
-8.01285e-11
4.15508e-11
-1.33017e-10
3.87442e-11
-1.7547e-10
2.84768e-11
-2.05841e-10
1.66121e-11
-2.31541e-10
1.22055e-11
-2.60872e-10
1.61479e-11
-2.92191e-10
1.84941e-11
-3.18953e-10
1.43423e-11
-3.36707e-10
5.79035e-12
-3.4755e-10
-6.15906e-13
-3.55436e-10
-3.01976e-12
-3.65217e-10
-5.24611e-13
-3.81416e-10
6.53881e-12
-4.07987e-10
1.75974e-11
-4.42686e-10
2.6451e-11
-4.84745e-10
3.45723e-11
-5.31923e-10
4.04843e-11
-5.81073e-10
4.32778e-11
-6.29041e-10
4.29409e-11
-6.71764e-10
3.85616e-11
-7.03865e-10
2.88214e-11
-7.19632e-10
1.338e-11
-7.13553e-10
-7.56391e-12
-6.85652e-10
-2.84801e-11
-6.37917e-10
-4.7407e-11
-5.74305e-10
-6.23798e-11
-5.01189e-10
-7.09834e-11
-4.25039e-10
-7.31233e-11
-3.50384e-10
-7.07434e-11
-2.80345e-10
-6.52511e-11
-2.17337e-10
-5.73563e-11
-1.65025e-10
-4.58064e-11
-1.25606e-10
-3.20734e-11
-1.03285e-10
-1.41487e-11
-1.01217e-10
6.91704e-12
-1.11615e-10
2.01806e-11
-1.26199e-10
2.5147e-11
-1.40464e-10
2.55927e-11
-1.47764e-10
1.93728e-11
-1.42229e-10
7.26389e-12
-1.14696e-10
-1.40294e-11
-6.8354e-11
-3.21565e-11
-1.06612e-11
-4.28484e-11
4.26838e-11
-3.78672e-11
7.38571e-11
-1.50884e-11
7.33236e-11
1.71986e-11
6.25587e-11
2.79823e-11
6.89797e-11
1.13207e-11
1.15853e-10
-2.86364e-11
1.7823e-10
-4.36741e-11
2.03516e-10
-6.14651e-12
1.60345e-10
6.27195e-11
7.59901e-11
1.04286e-10
1.05635e-11
8.57122e-11
3.89794e-12
2.72795e-11
1.52458e-11
9.56844e-12
-2.26124e-11
5.90531e-11
-1.08849e-10
1.07691e-10
-1.63858e-10
7.67078e-11
-1.27986e-10
-1.39419e-11
-5.98835e-11
-4.59463e-11
-4.48496e-11
7.34275e-12
-3.72405e-11
1.49791e-11
5.12235e-11
-6.56842e-11
1.81762e-10
-1.07606e-10
2.19198e-10
-1.44156e-11
1.83208e-10
5.90067e-11
1.67441e-10
3.86861e-11
8.35262e-11
1.0665e-10
-7.07861e-12
1.13118e-10
2.00504e-11
1.84978e-06
-1.0596e-07
1.86453e-06
-5.55173e-08
1.88334e-06
-5.16853e-08
1.90178e-06
-4.88817e-08
1.91998e-06
-4.57839e-08
1.93795e-06
-4.29809e-08
1.95493e-06
-3.94586e-08
1.97106e-06
-3.66591e-08
1.98581e-06
-3.40955e-08
1.99909e-06
-3.16229e-08
2.0114e-06
-2.92516e-08
2.02262e-06
-2.69888e-08
2.03276e-06
-2.48696e-08
2.04186e-06
-2.28595e-08
2.04986e-06
-2.08881e-08
2.05678e-06
-1.90285e-08
2.06265e-06
-1.72117e-08
2.06757e-06
-1.54698e-08
2.07152e-06
-1.37993e-08
2.07444e-06
-1.21637e-08
2.07625e-06
-1.04753e-08
2.07696e-06
-8.76149e-09
2.07663e-06
-7.07254e-09
2.07529e-06
-5.41567e-09
2.07296e-06
-3.80229e-09
2.06958e-06
-2.12866e-09
2.06518e-06
-4.71248e-10
2.05981e-06
1.19083e-09
2.05351e-06
2.88012e-09
2.04631e-06
4.60131e-09
2.03823e-06
6.33425e-09
2.02926e-06
8.14504e-09
2.0194e-06
1.0053e-08
2.00865e-06
1.20799e-08
1.99702e-06
1.42589e-08
1.98478e-06
1.6547e-08
1.97179e-06
1.89333e-08
1.95779e-06
2.13628e-08
1.94296e-06
2.37365e-08
1.92739e-06
2.59594e-08
1.91115e-06
2.79682e-08
1.89427e-06
2.97317e-08
1.87675e-06
3.12372e-08
1.85865e-06
3.24877e-08
1.84003e-06
3.35065e-08
1.82098e-06
3.43555e-08
1.80159e-06
3.5053e-08
1.78195e-06
3.56945e-08
1.76215e-06
3.63157e-08
1.74229e-06
3.69275e-08
1.72242e-06
3.7558e-08
1.70255e-06
3.8224e-08
1.68267e-06
3.89408e-08
1.66271e-06
3.97153e-08
1.64262e-06
4.05389e-08
1.62232e-06
4.13889e-08
1.60175e-06
4.22393e-08
1.58081e-06
4.30708e-08
1.55945e-06
4.38939e-08
1.53762e-06
4.47345e-08
1.51535e-06
4.55828e-08
1.49257e-06
4.64843e-08
1.46926e-06
4.74651e-08
1.44536e-06
4.86003e-08
1.4208e-06
4.99225e-08
1.39553e-06
5.14878e-08
1.36948e-06
5.33311e-08
1.34252e-06
5.5544e-08
1.3145e-06
5.8262e-08
1.28526e-06
6.16258e-08
1.25464e-06
6.58018e-08
1.22243e-06
7.1087e-08
1.18858e-06
7.79716e-08
1.1534e-06
8.71377e-08
1.11811e-06
9.94426e-08
1.08633e-06
1.15719e-07
1.0663e-06
1.36183e-07
1.07563e-06
1.6569e-07
1.03675e-06
1.8897e-07
9.05843e-07
1.76937e-07
7.32729e-07
2.04711e-07
5.67814e-07
1.61057e-07
5.13705e-07
6.35189e-08
4.69495e-07
4.24513e-08
4.59584e-07
2.88784e-09
4.4823e-07
2.10168e-08
4.42426e-07
1.35819e-08
4.44225e-07
5.67231e-09
4.53131e-07
-4.59228e-09
4.46322e-07
1.30507e-08
4.41062e-07
1.02911e-08
4.37368e-07
8.47683e-09
4.32836e-07
1.0653e-08
4.29165e-07
9.81358e-09
4.25688e-07
9.69587e-09
4.21044e-07
1.11418e-08
4.16359e-07
1.13974e-08
4.11584e-07
1.17191e-08
4.0706e-07
1.25905e-08
4.0212e-07
1.2864e-08
3.96173e-07
1.26358e-08
3.88711e-07
1.33312e-08
3.81194e-07
1.30213e-08
3.75001e-07
1.21741e-08
3.69318e-07
1.13973e-08
3.64008e-07
1.10401e-08
3.58437e-07
1.15453e-08
3.5281e-07
1.15367e-08
3.47311e-07
1.13076e-08
3.4177e-07
1.12274e-08
3.35945e-07
1.14669e-08
3.30102e-07
1.1441e-08
3.24256e-07
1.14608e-08
3.184e-07
1.15829e-08
3.12673e-07
1.17632e-08
3.07089e-07
1.19986e-08
3.02272e-07
1.26076e-08
2.97126e-07
1.2729e-08
2.90815e-07
1.23029e-08
2.82777e-07
1.28506e-08
2.74884e-07
1.21601e-08
2.68948e-07
1.07496e-08
2.64021e-07
9.46452e-09
2.59836e-07
8.71441e-09
2.55484e-07
9.1625e-09
2.5148e-07
8.78318e-09
2.47576e-07
8.65727e-09
2.435e-07
8.84308e-09
2.3949e-07
8.7354e-09
2.35541e-07
8.63144e-09
2.31606e-07
8.57863e-09
2.27714e-07
8.47759e-09
2.23859e-07
8.38855e-09
2.20032e-07
8.30719e-09
2.16245e-07
8.19967e-09
2.12502e-07
8.08509e-09
2.08801e-07
7.98029e-09
2.05137e-07
7.88676e-09
2.01515e-07
7.78443e-09
1.97936e-07
7.67307e-09
1.94402e-07
7.56006e-09
1.90909e-07
7.45906e-09
1.87456e-07
7.36481e-09
1.84044e-07
7.26079e-09
1.8068e-07
7.15459e-09
1.77361e-07
7.05783e-09
1.74084e-07
6.96512e-09
1.7085e-07
6.86283e-09
1.67662e-07
6.75877e-09
1.64514e-07
6.66564e-09
1.61405e-07
6.57562e-09
1.5834e-07
6.47903e-09
1.55317e-07
6.38398e-09
1.52334e-07
6.29525e-09
1.49392e-07
6.20319e-09
1.46496e-07
6.10399e-09
1.43643e-07
6.00631e-09
1.40831e-07
5.91357e-09
1.38056e-07
5.8218e-09
1.35319e-07
5.73287e-09
1.32618e-07
5.64906e-09
1.29951e-07
5.56385e-09
1.27316e-07
5.47221e-09
1.24717e-07
5.37951e-09
1.22156e-07
5.29028e-09
1.19634e-07
5.20093e-09
1.17148e-07
5.10777e-09
1.14697e-07
5.01527e-09
1.1228e-07
4.93102e-09
1.09894e-07
4.85333e-09
1.07538e-07
4.77054e-09
1.05216e-07
4.68209e-09
1.02928e-07
4.59937e-09
1.00674e-07
4.52173e-09
9.84562e-08
4.43892e-09
9.6277e-08
4.35293e-09
9.41349e-08
4.27381e-09
9.20282e-08
4.20049e-09
8.99572e-08
4.12453e-09
8.79232e-08
4.0467e-09
8.59256e-08
3.97316e-09
8.39633e-08
3.90126e-09
8.2038e-08
3.8236e-09
8.01518e-08
3.74177e-09
7.8304e-08
3.66311e-09
7.64928e-08
3.58812e-09
7.47187e-08
3.51135e-09
7.29828e-08
3.43232e-09
7.12836e-08
3.35624e-09
6.96176e-08
3.28489e-09
6.79836e-08
3.21389e-09
6.63831e-08
3.13918e-09
6.48179e-08
3.06244e-09
6.32878e-08
2.98791e-09
6.17927e-08
2.91613e-09
6.03334e-08
2.84491e-09
5.89089e-08
2.77575e-09
5.75155e-08
2.71215e-09
5.61508e-08
2.653e-09
5.48151e-08
2.59488e-09
5.35095e-08
2.53749e-09
5.22342e-08
2.48156e-09
5.09898e-08
2.42616e-09
4.97768e-08
2.37095e-09
4.85957e-08
2.31665e-09
4.7446e-08
2.26287e-09
4.63269e-08
2.20974e-09
4.52367e-08
2.15923e-09
4.4173e-08
2.11162e-09
4.31347e-08
2.06458e-09
4.21215e-08
2.01873e-09
4.11327e-08
1.97799e-09
4.01672e-08
1.94222e-09
3.9225e-08
1.90649e-09
3.83069e-08
1.86932e-09
3.74127e-08
1.83418e-09
3.6541e-08
1.80165e-09
3.56914e-08
1.76772e-09
3.48631e-08
1.73137e-09
3.40546e-08
1.69711e-09
3.3264e-08
1.66704e-09
3.24904e-08
1.63748e-09
3.17345e-08
1.60579e-09
3.09969e-08
1.5745e-09
3.02777e-08
1.54584e-09
2.9577e-08
1.51728e-09
2.88951e-08
1.48597e-09
2.82315e-08
1.45368e-09
2.75846e-08
1.42365e-09
2.69526e-08
1.39594e-09
2.63344e-08
1.36893e-09
2.57295e-08
1.34255e-09
2.51378e-08
1.31713e-09
2.45598e-08
1.29143e-09
2.3997e-08
1.26461e-09
2.34503e-08
1.2379e-09
2.29193e-08
1.21274e-09
2.24032e-08
1.18843e-09
2.19007e-08
1.16357e-09
2.14103e-08
1.13852e-09
2.09307e-08
1.1148e-09
2.04614e-08
1.09305e-09
2.00023e-08
1.07323e-09
1.95531e-08
1.05596e-09
1.91124e-08
1.04186e-09
1.8679e-08
1.02965e-09
1.82535e-08
1.01648e-09
1.78379e-08
1.00117e-09
1.74341e-08
9.85649e-10
1.70418e-08
9.71922e-10
1.66596e-08
9.58629e-10
1.62866e-08
9.42245e-10
1.59232e-08
9.2184e-10
1.55698e-08
9.01088e-10
1.52258e-08
8.83263e-10
1.4889e-08
8.6785e-10
1.45578e-08
8.51032e-10
1.42322e-08
8.30897e-10
1.39133e-08
8.09877e-10
1.36004e-08
7.93181e-10
1.32932e-08
7.80608e-10
1.29921e-08
7.68956e-10
1.26978e-08
7.56461e-10
1.24103e-08
7.43691e-10
1.21286e-08
7.30742e-10
1.18524e-08
7.16216e-10
1.15819e-08
6.99693e-10
1.1317e-08
6.82469e-10
1.1057e-08
6.65106e-10
1.08012e-08
6.46825e-10
1.05494e-08
6.28059e-10
1.03012e-08
6.11243e-10
1.00564e-08
5.97897e-10
9.81538e-09
5.8727e-10
9.57882e-09
5.78499e-10
9.34683e-09
5.71972e-10
9.11931e-09
5.67787e-10
8.89673e-09
5.64739e-10
8.68009e-09
5.61787e-10
8.47006e-09
5.59162e-10
8.26654e-09
5.57029e-10
8.06903e-09
5.53975e-10
7.87734e-09
5.4805e-10
7.69133e-09
5.38883e-10
7.51062e-09
5.27875e-10
7.33456e-09
5.16395e-10
7.16252e-09
5.04421e-10
6.9942e-09
4.91241e-10
6.82952e-09
4.76832e-10
6.66814e-09
4.62121e-10
6.50947e-09
4.48086e-10
6.35289e-09
4.35137e-10
6.19807e-09
4.23388e-10
6.04505e-09
4.13142e-10
5.89386e-09
4.04666e-10
5.74448e-09
3.97708e-10
5.59684e-09
3.91414e-10
5.45102e-09
3.84976e-10
5.30728e-09
3.78202e-10
5.16602e-09
3.71473e-10
5.0277e-09
3.6508e-10
4.89274e-09
3.58803e-10
4.76149e-09
3.51954e-10
4.63418e-09
3.4401e-10
4.51095e-09
3.3501e-10
4.39179e-09
3.25587e-10
4.27648e-09
3.16587e-10
4.16462e-09
3.08751e-10
4.05569e-09
3.02486e-10
3.94923e-09
2.97888e-10
3.84487e-09
2.94828e-10
3.74228e-09
2.92963e-10
3.6415e-09
2.91841e-10
3.54259e-09
2.90837e-10
3.44566e-09
2.89328e-10
3.35095e-09
2.86678e-10
3.25887e-09
2.82349e-10
3.17005e-09
2.75972e-10
3.08518e-09
2.67632e-10
3.00475e-09
2.58007e-10
2.92856e-09
2.48242e-10
2.85565e-09
2.39263e-10
2.78475e-09
2.31334e-10
2.71517e-09
2.24055e-10
2.64715e-09
2.17396e-10
2.58133e-09
2.12361e-10
2.51786e-09
2.10474e-10
2.45586e-09
2.1169e-10
2.39457e-09
2.13628e-10
2.33447e-09
2.13129e-10
2.27724e-09
2.09245e-10
2.224e-09
2.03498e-10
2.1744e-09
1.97259e-10
2.12766e-09
1.89479e-10
2.08405e-09
1.78497e-10
2.04449e-09
1.65806e-10
2.00877e-09
1.55874e-10
1.97486e-09
1.51511e-10
1.94088e-09
1.50782e-10
1.90684e-09
1.50335e-10
1.87369e-09
1.49821e-10
1.84151e-09
1.51234e-10
1.80962e-09
1.5475e-10
1.77773e-09
1.57464e-10
1.74645e-09
1.57073e-10
1.71628e-09
1.54424e-10
1.68706e-09
1.51077e-10
1.65861e-09
1.46754e-10
1.631e-09
1.41193e-10
1.60397e-09
1.36152e-10
1.57682e-09
1.33366e-10
1.54917e-09
1.3253e-10
1.52105e-09
1.33049e-10
1.49219e-09
1.35496e-10
1.46228e-09
1.395e-10
1.43194e-09
1.42299e-10
1.40263e-09
1.41332e-10
1.37547e-09
1.37147e-10
1.35026e-09
1.31978e-10
1.32596e-09
1.26963e-10
1.3017e-09
1.21901e-10
1.27712e-09
1.17448e-10
1.2518e-09
1.15398e-10
1.22518e-09
1.16761e-10
1.19703e-09
1.20407e-10
1.16776e-09
1.24221e-10
1.1381e-09
1.26802e-10
1.10874e-09
1.27719e-10
1.08011e-09
1.26628e-10
1.05246e-09
1.23113e-10
1.02597e-09
1.17401e-10
1.00066e-09
1.1093e-10
9.76166e-10
1.05693e-10
9.5176e-10
1.02825e-10
9.26988e-10
1.01597e-10
9.02323e-10
1.00153e-10
8.78845e-10
9.75584e-11
8.57155e-10
9.44664e-11
8.37037e-10
9.10684e-11
8.18222e-10
8.59335e-11
8.0061e-10
7.84447e-11
7.83583e-10
7.07908e-11
7.66074e-10
6.58755e-11
7.47222e-10
6.45323e-11
7.26945e-10
6.5666e-11
7.0618e-10
6.76728e-11
6.86063e-10
6.85335e-11
6.67613e-10
6.65496e-11
6.51181e-10
6.18115e-11
6.36093e-10
5.59011e-11
6.20979e-10
5.06306e-11
6.04395e-10
4.76685e-11
5.85394e-10
4.79914e-11
5.64054e-10
5.08735e-11
5.41271e-10
5.47186e-11
5.18337e-10
5.79388e-11
4.9653e-10
5.90397e-11
4.76404e-10
5.69493e-11
4.57537e-10
5.17588e-11
4.39125e-10
4.51246e-11
4.20423e-10
3.99736e-11
4.00994e-10
3.81655e-11
3.81526e-10
3.78879e-11
3.64028e-10
3.5874e-11
3.49497e-10
3.29509e-11
3.36761e-10
3.08477e-11
3.24213e-10
2.80103e-11
3.10706e-10
2.47293e-11
2.96189e-10
2.28932e-11
2.81845e-10
2.27525e-11
2.68471e-10
2.36732e-11
2.56723e-10
2.39262e-11
2.47183e-10
2.14586e-11
2.39807e-10
1.69724e-11
2.33104e-10
1.39603e-11
2.25594e-10
1.33488e-11
2.17269e-10
1.32486e-11
2.08675e-10
1.43562e-11
1.99842e-10
1.57312e-11
1.90957e-10
1.56809e-11
1.8342e-10
1.30891e-11
1.75846e-10
1.64407e-11
1.67313e-10
2.21081e-11
1.57005e-10
2.59349e-11
1.44843e-10
2.95033e-11
1.34801e-10
2.44635e-11
1.27958e-10
1.71956e-11
1.23527e-10
1.36352e-11
1.18324e-10
1.37871e-11
1.1067e-10
1.7717e-11
1.04703e-10
1.29253e-11
1.01101e-10
5.93562e-12
1.01555e-10
-6.03739e-12
1.00548e-10
-6.59622e-12
1.01661e-10
-7.30754e-12
9.98075e-11
1.45561e-12
9.85179e-11
4.92435e-12
9.63657e-11
2.37638e-12
9.48569e-11
3.51596e-12
9.56846e-11
-9.0761e-12
9.31897e-11
1.3863e-12
8.33905e-11
2.16036e-11
7.73644e-11
1.68215e-11
7.0965e-11
1.60099e-11
7.21864e-11
-2.18956e-13
7.1868e-11
5.78724e-12
7.07259e-11
6.06955e-12
7.4498e-11
-8.71824e-12
7.81831e-11
-1.32903e-11
7.80856e-11
-2.21913e-11
6.97076e-11
1.72525e-12
7.94294e-11
-2.90051e-11
8.71783e-11
-1.24122e-11
8.35755e-11
7.25428e-13
9.27872e-11
-3.87956e-12
1.02286e-10
-1.24668e-11
1.07343e-10
-3.0464e-11
1.16243e-10
-1.11199e-11
1.13064e-10
-1.98519e-11
1.11085e-10
-3.29825e-11
1.30641e-10
-2.9742e-11
1.29973e-10
-1.32243e-11
1.03551e-10
1.67368e-11
1.28901e-10
-5.05435e-11
1.56144e-10
-3.20449e-11
2.28502e-10
-1.0031e-10
2.91112e-10
-9.84238e-11
3.23597e-10
-7.00836e-11
3.17624e-10
-9.71393e-11
2.63552e-10
-1.77536e-11
2.67261e-10
-3.45147e-11
2.70628e-10
-4.37604e-11
2.51164e-10
1.03941e-12
2.24537e-10
1.01883e-11
1.87735e-10
1.89317e-11
1.36452e-10
4.21578e-11
8.85734e-11
4.88562e-11
5.39532e-11
4.1246e-11
2.1694e-11
4.24478e-11
-1.60593e-11
5.09211e-11
-5.45859e-11
4.94129e-11
-8.9969e-11
3.65972e-11
-1.26851e-10
2.68984e-11
-1.68467e-10
2.79664e-11
-2.09992e-10
3.26342e-11
-2.45522e-10
2.98794e-11
-2.71667e-10
1.73199e-11
-2.8759e-10
-3.95125e-13
-2.97454e-10
-1.17188e-11
-3.07747e-10
-1.24696e-11
-3.21618e-10
-5.0961e-12
-3.44278e-10
1.21292e-11
-3.74332e-10
3.20251e-11
-4.11648e-10
4.96454e-11
-4.50743e-10
6.11075e-11
-4.86544e-10
6.53363e-11
-5.16745e-10
6.41833e-11
-5.39678e-10
5.82699e-11
-5.54038e-10
4.7034e-11
-5.59619e-10
3.02543e-11
-5.56624e-10
7.98959e-12
-5.4737e-10
-1.7455e-11
-5.29547e-10
-4.51804e-11
-5.05854e-10
-6.82237e-11
-4.7632e-10
-8.72948e-11
-4.40747e-10
-1.00209e-10
-3.98997e-10
-1.06816e-10
-3.51655e-10
-1.08339e-10
-3.01914e-10
-1.03582e-10
-2.54017e-10
-9.22058e-11
-2.13402e-10
-7.17658e-11
-1.85478e-10
-4.37619e-11
-1.70464e-10
-1.13819e-11
-1.65418e-10
2.11648e-11
-1.64796e-10
4.0331e-11
-1.65764e-10
4.83281e-11
-1.62611e-10
4.60552e-11
-1.5433e-10
3.60677e-11
-1.40212e-10
1.94366e-11
-1.16509e-10
-1.01745e-11
-8.09211e-11
-3.89701e-11
-3.67732e-11
-5.70597e-11
4.13541e-12
-4.77324e-11
3.10823e-11
-9.94215e-12
4.59801e-11
3.53866e-11
5.89592e-11
4.90239e-11
8.7992e-11
1.71859e-11
1.22455e-10
-2.73817e-11
1.36673e-10
-2.14096e-11
1.0847e-10
5.92488e-11
5.51643e-11
1.53878e-10
2.22714e-11
1.75644e-10
4.245e-11
1.04564e-10
6.80899e-11
4.11884e-11
4.82172e-11
6.94636e-11
-1.96894e-11
1.67417e-10
-6.05678e-11
1.8943e-10
-2.12797e-11
7.86604e-11
2.82425e-11
-2.18614e-11
1.12323e-11
1.30122e-11
-1.06546e-11
7.14984e-11
4.25132e-11
4.35395e-12
9.82783e-11
-7.87071e-11
6.26589e-11
-2.91475e-11
2.82073e-11
6.28459e-11
2.10132e-11
1.0883e-10
5.61374e-12
9.63824e-11
-1.97967e-11
1.73966e-10
2.73562e-11
1.07543e-10
7.03384e-11
1.84793e-06
-1.21826e-07
1.87114e-06
-5.82644e-08
1.89013e-06
-5.56763e-08
1.90813e-06
-5.57506e-08
1.92553e-06
-5.47355e-08
1.94203e-06
-5.30601e-08
1.9582e-06
-5.0975e-08
1.97334e-06
-4.87323e-08
1.98731e-06
-4.63155e-08
2.00035e-06
-4.36949e-08
2.01248e-06
-4.09473e-08
2.02349e-06
-3.8188e-08
2.03341e-06
-3.54573e-08
2.04248e-06
-3.26955e-08
2.05072e-06
-2.98368e-08
2.05795e-06
-2.69597e-08
2.06416e-06
-2.41128e-08
2.06937e-06
-2.12745e-08
2.07363e-06
-1.84944e-08
2.0769e-06
-1.57093e-08
2.07908e-06
-1.28561e-08
2.08017e-06
-9.98021e-09
2.08019e-06
-7.16157e-09
2.07917e-06
-4.41389e-09
2.0771e-06
-1.74068e-09
2.07401e-06
9.31294e-10
2.06991e-06
3.56256e-09
2.06482e-06
6.16307e-09
2.0588e-06
8.75572e-09
2.05188e-06
1.1334e-08
2.04411e-06
1.38522e-08
2.03549e-06
1.63687e-08
2.02604e-06
1.88655e-08
2.01574e-06
2.1349e-08
2.00455e-06
2.38509e-08
1.99245e-06
2.63498e-08
1.9794e-06
2.88814e-08
1.96539e-06
3.14771e-08
1.95042e-06
3.41308e-08
1.93455e-06
3.68196e-08
1.91789e-06
3.9509e-08
1.90056e-06
4.21713e-08
1.88271e-06
4.47721e-08
1.86443e-06
4.72749e-08
1.84581e-06
4.96565e-08
1.82691e-06
5.19076e-08
1.80776e-06
5.40195e-08
1.7884e-06
5.59954e-08
1.76888e-06
5.78285e-08
1.74924e-06
5.95103e-08
1.72947e-06
6.104e-08
1.70959e-06
6.24153e-08
1.68955e-06
6.36539e-08
1.66933e-06
6.47737e-08
1.64888e-06
6.57988e-08
1.62815e-06
6.67557e-08
1.60709e-06
6.76958e-08
1.58566e-06
6.86196e-08
1.56385e-06
6.96e-08
1.54166e-06
7.0657e-08
1.51911e-06
7.17857e-08
1.4962e-06
7.30167e-08
1.4729e-06
7.4403e-08
1.44918e-06
7.5988e-08
1.425e-06
7.77895e-08
1.40032e-06
7.98372e-08
1.37508e-06
8.21939e-08
1.34923e-06
8.49757e-08
1.32274e-06
8.82834e-08
1.29568e-06
9.21967e-08
1.26812e-06
9.68697e-08
1.24017e-06
1.0255e-07
1.21216e-06
1.09472e-07
1.18471e-06
1.17966e-07
1.15893e-06
1.28428e-07
1.13684e-06
1.40836e-07
1.12102e-06
1.55021e-07
1.11958e-06
1.70352e-07
1.12887e-06
1.82748e-07
1.11959e-06
1.89109e-07
1.1207e-06
2.06573e-07
1.06477e-06
2.19862e-07
9.26291e-07
2.05239e-07
7.40822e-07
2.31328e-07
5.68469e-07
1.77928e-07
5.08721e-07
8.24429e-08
4.60377e-07
6.4122e-08
4.37768e-07
3.08351e-08
4.33456e-07
2.4043e-09
4.3009e-07
1.82665e-08
4.3427e-07
7.89728e-09
4.42876e-07
1.67838e-09
4.36367e-07
1.90334e-08
4.3079e-07
1.71895e-08
4.26684e-07
1.5465e-08
4.21559e-07
1.781e-08
4.17289e-07
1.71428e-08
4.13332e-07
1.70741e-08
4.08641e-07
1.85893e-08
4.03935e-07
1.88066e-08
3.98851e-07
1.89183e-08
3.93718e-07
1.96226e-08
3.88106e-07
1.97356e-08
3.81781e-07
1.95367e-08
3.73974e-07
2.0165e-08
3.66071e-07
1.98081e-08
3.59448e-07
1.89175e-08
3.53069e-07
1.85496e-08
3.47168e-07
1.77298e-08
3.41573e-07
1.72356e-08
3.35765e-07
1.75877e-08
3.30158e-07
1.72858e-08
3.24588e-07
1.7219e-08