/*--------------------------------*- C++ -*----------------------------------*\
| =========                 |                                                 |
| \\      /  F ield         | OpenFOAM: The Open Source CFD Toolbox           |
|  \\    /   O peration     | Version:  v2006                                 |
|   \\  /    A nd           | Website:  www.openfoam.com                      |
|    \\/     M anipulation  |                                                 |
\*---------------------------------------------------------------------------*/
FoamFile
{
    version     2.0;
    format      ascii;
    class       volScalarField;
    location    "0.4";
    object      k;
}
// * * * * * * * * * * * * * * * * * * * * * * * * * * * * * * * * * * * * * //

dimensions      [0 2 -2 0 0 0 0];


internalField   nonuniform List<scalar> 
33000
(
1.18794e-08
1.23553e-08
1.23323e-08
1.2323e-08
1.23281e-08
1.23304e-08
1.23313e-08
1.23318e-08
1.23321e-08
1.23322e-08
1.23319e-08
1.23313e-08
1.23304e-08
1.23289e-08
1.23261e-08
1.23229e-08
1.23193e-08
1.23153e-08
1.23111e-08
1.23067e-08
1.23018e-08
1.22951e-08
1.22879e-08
1.22804e-08
1.22727e-08
1.22648e-08
1.22567e-08
1.22469e-08
1.22359e-08
1.22247e-08
1.22133e-08
1.22018e-08
1.21902e-08
1.21778e-08
1.21627e-08
1.21471e-08
1.21314e-08
1.21149e-08
1.20957e-08
1.20739e-08
1.20518e-08
1.20298e-08
1.2006e-08
1.19808e-08
1.1954e-08
1.19216e-08
1.18882e-08
1.18544e-08
1.18167e-08
1.17791e-08
1.17417e-08
1.17047e-08
1.16679e-08
1.16315e-08
1.15953e-08
1.15593e-08
1.15236e-08
1.1488e-08
1.14526e-08
1.14174e-08
1.13822e-08
1.1347e-08
1.13118e-08
1.12765e-08
1.12411e-08
1.12053e-08
1.11692e-08
1.11325e-08
1.10949e-08
1.10562e-08
1.10158e-08
1.09729e-08
1.09262e-08
1.08738e-08
1.08123e-08
1.07367e-08
1.0629e-08
1.06116e-08
1.02164e-08
1.02367e-08
1.01507e-08
1.01658e-08
1.01598e-08
1.01484e-08
1.01566e-08
1.01536e-08
1.0141e-08
1.01333e-08
1.0127e-08
1.01222e-08
1.0116e-08
1.01115e-08
1.01062e-08
1.01003e-08
1.00946e-08
1.00885e-08
1.00824e-08
1.00753e-08
1.00699e-08
1.00596e-08
1.00543e-08
1.00474e-08
1.00419e-08
1.0036e-08
1.00301e-08
1.00244e-08
1.00186e-08
1.00127e-08
1.00069e-08
1.00012e-08
9.99545e-09
9.98975e-09
9.98409e-09
9.97837e-09
9.97276e-09
9.96631e-09
9.96198e-09
9.95196e-09
9.94792e-09
9.9423e-09
9.93815e-09
9.93379e-09
9.92942e-09
9.92533e-09
9.92117e-09
9.91701e-09
9.91296e-09
9.90896e-09
9.90501e-09
9.90113e-09
9.89732e-09
9.89356e-09
9.88987e-09
9.88623e-09
9.88265e-09
9.87914e-09
9.8757e-09
9.87232e-09
9.86899e-09
9.86572e-09
9.86252e-09
9.85938e-09
9.8563e-09
9.85327e-09
9.85031e-09
9.8474e-09
9.84454e-09
9.84173e-09
9.83898e-09
9.83629e-09
9.83364e-09
9.83104e-09
9.8285e-09
9.826e-09
9.82355e-09
9.82115e-09
9.8188e-09
9.8165e-09
9.81424e-09
9.81202e-09
9.80985e-09
9.80771e-09
9.80563e-09
9.80359e-09
9.80159e-09
9.79962e-09
9.7977e-09
9.79582e-09
9.79398e-09
9.79217e-09
9.7904e-09
9.78867e-09
9.78697e-09
9.78531e-09
9.78368e-09
9.78209e-09
9.78053e-09
9.779e-09
9.77751e-09
9.77605e-09
9.77462e-09
9.77322e-09
9.77185e-09
9.77052e-09
9.76922e-09
9.76794e-09
9.7667e-09
9.76549e-09
9.7643e-09
9.76315e-09
9.76202e-09
9.76092e-09
9.75984e-09
9.7588e-09
9.75778e-09
9.75678e-09
9.75581e-09
9.75487e-09
9.75394e-09
9.75304e-09
9.75216e-09
9.7513e-09
9.75046e-09
9.74964e-09
9.74884e-09
9.74806e-09
9.7473e-09
9.74656e-09
9.74584e-09
9.74515e-09
9.74447e-09
9.74381e-09
9.74317e-09
9.74254e-09
9.74192e-09
9.74132e-09
9.74073e-09
9.74016e-09
9.73959e-09
9.73904e-09
9.73851e-09
9.73798e-09
9.73747e-09
9.73697e-09
9.73648e-09
9.73599e-09
9.73552e-09
9.73506e-09
9.73461e-09
9.73417e-09
9.73375e-09
9.73333e-09
9.73292e-09
9.73253e-09
9.73214e-09
9.73176e-09
9.73139e-09
9.73103e-09
9.73067e-09
9.73033e-09
9.72999e-09
9.72967e-09
9.72935e-09
9.72904e-09
9.72873e-09
9.72843e-09
9.72814e-09
9.72785e-09
9.72757e-09
9.72729e-09
9.72701e-09
9.72675e-09
9.72649e-09
9.72623e-09
9.72599e-09
9.72575e-09
9.72551e-09
9.72528e-09
9.72505e-09
9.72484e-09
9.72463e-09
9.72442e-09
9.72422e-09
9.72402e-09
9.72382e-09
9.72363e-09
9.72344e-09
9.72326e-09
9.72309e-09
9.72292e-09
9.72276e-09
9.7226e-09
9.72245e-09
9.72231e-09
9.72217e-09
9.72203e-09
9.7219e-09
9.72177e-09
9.72164e-09
9.72151e-09
9.72138e-09
9.72125e-09
9.72112e-09
9.721e-09
9.72088e-09
9.72077e-09
9.72066e-09
9.72055e-09
9.72044e-09
9.72035e-09
9.72025e-09
9.72016e-09
9.72007e-09
9.71999e-09
9.7199e-09
9.71982e-09
9.71973e-09
9.71965e-09
9.71957e-09
9.71949e-09
9.71941e-09
9.71933e-09
9.71925e-09
9.71917e-09
9.7191e-09
9.71903e-09
9.71896e-09
9.7189e-09
9.71884e-09
9.71879e-09
9.71873e-09
9.71868e-09
9.71862e-09
9.71856e-09
9.7185e-09
9.71844e-09
9.71838e-09
9.71832e-09
9.71827e-09
9.71822e-09
9.71817e-09
9.71812e-09
9.71808e-09
9.71804e-09
9.71801e-09
9.71797e-09
9.71794e-09
9.71791e-09
9.71788e-09
9.71784e-09
9.7178e-09
9.71777e-09
9.71773e-09
9.7177e-09
9.71767e-09
9.71765e-09
9.71763e-09
9.71762e-09
9.71761e-09
9.71759e-09
9.71758e-09
9.71756e-09
9.71754e-09
9.71752e-09
9.7175e-09
9.71747e-09
9.71745e-09
9.71743e-09
9.7174e-09
9.71739e-09
9.71737e-09
9.71736e-09
9.71734e-09
9.71733e-09
9.71731e-09
9.71728e-09
9.71726e-09
9.71723e-09
9.71721e-09
9.71719e-09
9.71717e-09
9.71716e-09
9.71715e-09
9.71714e-09
9.71713e-09
9.71712e-09
9.71711e-09
9.71711e-09
9.7171e-09
9.7171e-09
9.71711e-09
9.71711e-09
9.71711e-09
9.71711e-09
9.71711e-09
9.71711e-09
9.71711e-09
9.71711e-09
9.71711e-09
9.71711e-09
9.71711e-09
9.71711e-09
9.7171e-09
9.7171e-09
9.7171e-09
9.7171e-09
9.71709e-09
9.71708e-09
9.71707e-09
9.71706e-09
9.71705e-09
9.71704e-09
9.71703e-09
9.71701e-09
9.717e-09
9.71698e-09
9.71696e-09
9.71694e-09
9.71692e-09
9.7169e-09
9.71688e-09
9.71686e-09
9.71684e-09
9.71682e-09
9.71679e-09
9.71677e-09
9.71675e-09
9.71673e-09
9.71671e-09
9.71669e-09
9.71668e-09
9.71666e-09
9.71664e-09
9.71663e-09
9.71662e-09
9.71662e-09
9.71662e-09
9.71662e-09
9.71662e-09
9.71662e-09
9.71662e-09
9.71662e-09
9.71662e-09
9.71661e-09
9.7166e-09
9.7166e-09
9.71659e-09
9.71659e-09
9.71658e-09
9.71657e-09
9.71657e-09
9.71656e-09
9.71655e-09
9.71655e-09
9.71654e-09
9.71654e-09
9.71653e-09
9.71651e-09
9.7165e-09
9.71649e-09
9.71649e-09
9.71649e-09
9.7165e-09
9.7165e-09
9.7165e-09
9.71651e-09
9.71652e-09
9.71653e-09
9.71655e-09
9.71656e-09
9.71657e-09
9.71659e-09
9.7166e-09
9.71661e-09
9.71663e-09
9.71664e-09
9.71665e-09
9.71666e-09
9.71666e-09
9.71667e-09
9.71667e-09
9.71667e-09
9.71667e-09
9.71667e-09
9.71666e-09
9.71665e-09
9.71664e-09
9.71663e-09
9.7166e-09
9.71683e-09
9.71677e-09
9.71675e-09
9.71673e-09
9.71671e-09
9.71668e-09
9.71666e-09
9.71664e-09
9.71664e-09
9.71665e-09
9.71667e-09
9.7167e-09
9.71674e-09
9.71678e-09
9.71683e-09
9.71687e-09
9.71692e-09
9.71696e-09
9.71701e-09
9.71706e-09
9.7171e-09
9.71714e-09
9.71718e-09
9.71722e-09
9.71725e-09
9.71729e-09
9.71732e-09
9.71734e-09
9.71737e-09
9.71739e-09
9.7174e-09
9.71742e-09
9.71742e-09
9.71742e-09
9.71741e-09
9.7174e-09
9.71738e-09
9.71735e-09
9.71733e-09
9.7173e-09
9.71728e-09
9.71725e-09
9.71723e-09
9.71721e-09
9.71718e-09
9.71715e-09
9.71711e-09
9.71707e-09
9.71704e-09
9.71701e-09
9.71698e-09
9.71695e-09
9.71694e-09
9.71692e-09
9.7169e-09
9.71688e-09
9.71684e-09
9.71681e-09
9.7168e-09
9.7168e-09
9.71679e-09
9.71676e-09
9.71671e-09
9.71665e-09
9.7166e-09
9.71658e-09
9.71656e-09
9.71657e-09
9.71659e-09
9.71659e-09
9.71658e-09
9.71653e-09
9.71652e-09
9.71653e-09
9.71659e-09
9.71658e-09
9.71654e-09
9.71652e-09
9.7165e-09
9.71651e-09
9.72158e-09
1.00051e-08
1.0006e-08
1.00066e-08
1.00058e-08
1.00059e-08
1.00062e-08
1.00064e-08
1.00066e-08
1.00068e-08
1.0007e-08
1.00071e-08
1.00071e-08
1.0007e-08
1.00069e-08
1.00069e-08
1.00069e-08
1.0007e-08
1.0007e-08
1.00071e-08
1.00071e-08
1.00072e-08
1.00073e-08
1.00074e-08
1.00074e-08
1.00074e-08
1.00074e-08
1.00073e-08
1.00073e-08
1.00072e-08
1.00069e-08
1.00066e-08
1.00064e-08
1.00062e-08
1.00061e-08
1.00059e-08
1.00058e-08
1.00057e-08
1.00056e-08
1.00055e-08
1.00054e-08
1.00054e-08
1.00054e-08
1.00054e-08
1.00054e-08
1.00054e-08
1.00055e-08
1.00055e-08
1.00055e-08
1.00055e-08
1.00055e-08
1.00055e-08
1.00056e-08
1.00056e-08
1.00056e-08
1.00057e-08
1.00058e-08
1.00059e-08
1.0006e-08
1.00061e-08
1.00062e-08
1.00063e-08
1.00064e-08
1.00064e-08
1.00065e-08
1.00066e-08
1.00066e-08
1.00067e-08
1.00067e-08
1.00068e-08
1.0007e-08
1.00072e-08
1.00075e-08
1.00079e-08
1.00085e-08
1.00094e-08
1.00109e-08
1.00132e-08
1.00182e-08
1.00142e-08
1.00075e-08
1.00056e-08
1.0004e-08
1.00049e-08
1.00043e-08
1.00042e-08
1.00051e-08
1.00022e-08
1.00002e-08
1.00014e-08
1.00016e-08
1.00019e-08
1.00011e-08
1.00013e-08
1.0001e-08
1.00009e-08
1.00012e-08
1.00013e-08
1.00014e-08
1.00013e-08
1.00015e-08
1.00015e-08
1.00021e-08
1.00021e-08
1.00016e-08
1.00016e-08
1.00014e-08
1.00014e-08
1.00013e-08
1.00012e-08
1.00012e-08
1.00013e-08
1.00012e-08
1.00012e-08
1.00012e-08
1.00011e-08
1.00011e-08
1.00009e-08
1.0001e-08
1.00011e-08
1.00017e-08
1.00016e-08
1.0001e-08
1.00009e-08
1.00007e-08
1.00006e-08
1.00005e-08
1.00005e-08
1.00005e-08
1.00005e-08
1.00005e-08
1.00004e-08
1.00004e-08
1.00004e-08
1.00004e-08
1.00003e-08
1.00003e-08
1.00003e-08
1.00002e-08
1.00002e-08
1.00002e-08
1.00002e-08
1.00001e-08
1.00001e-08
1.00001e-08
1.00001e-08
1e-08
1e-08
9.99998e-09
9.99996e-09
9.99994e-09
9.99991e-09
9.99989e-09
9.99987e-09
9.99984e-09
9.99982e-09
9.9998e-09
9.99977e-09
9.99975e-09
9.99973e-09
9.99971e-09
9.99969e-09
9.99967e-09
9.99965e-09
9.99963e-09
9.99961e-09
9.99958e-09
9.99956e-09
9.99954e-09
9.99952e-09
9.9995e-09
9.99948e-09
9.99946e-09
9.99944e-09
9.99942e-09
9.9994e-09
9.99938e-09
9.99936e-09
9.99934e-09
9.99932e-09
9.9993e-09
9.99929e-09
9.99927e-09
9.99925e-09
9.99924e-09
9.99922e-09
9.99921e-09
9.99919e-09
9.99918e-09
9.99917e-09
9.99916e-09
9.99915e-09
9.99914e-09
9.99913e-09
9.99912e-09
9.99911e-09
9.9991e-09
9.99909e-09
9.99908e-09
9.99907e-09
9.99907e-09
9.99906e-09
9.99905e-09
9.99904e-09
9.99904e-09
9.99903e-09
9.99902e-09
9.99902e-09
9.99901e-09
9.99901e-09
9.999e-09
9.999e-09
9.99899e-09
9.99899e-09
9.99899e-09
9.99898e-09
9.99898e-09
9.99897e-09
9.99897e-09
9.99896e-09
9.99896e-09
9.99896e-09
9.99895e-09
9.99895e-09
9.99895e-09
9.99894e-09
9.99894e-09
9.99894e-09
9.99893e-09
9.99893e-09
9.99893e-09
9.99893e-09
9.99893e-09
9.99892e-09
9.99892e-09
9.99892e-09
9.99892e-09
9.99891e-09
9.99891e-09
9.99891e-09
9.99891e-09
9.99891e-09
9.99891e-09
9.99891e-09
9.9989e-09
9.9989e-09
9.9989e-09
9.9989e-09
9.9989e-09
9.9989e-09
9.99889e-09
9.99889e-09
9.99889e-09
9.99889e-09
9.99889e-09
9.99889e-09
9.99888e-09
9.99888e-09
9.99888e-09
9.99888e-09
9.99888e-09
9.99888e-09
9.99888e-09
9.99887e-09
9.99887e-09
9.99887e-09
9.99887e-09
9.99887e-09
9.99887e-09
9.99887e-09
9.99887e-09
9.99887e-09
9.99886e-09
9.99886e-09
9.99886e-09
9.99886e-09
9.99886e-09
9.99886e-09
9.99886e-09
9.99886e-09
9.99886e-09
9.99886e-09
9.99886e-09
9.99886e-09
9.99886e-09
9.99886e-09
9.99886e-09
9.99886e-09
9.99886e-09
9.99886e-09
9.99886e-09
9.99886e-09
9.99886e-09
9.99886e-09
9.99886e-09
9.99886e-09
9.99886e-09
9.99886e-09
9.99886e-09
9.99886e-09
9.99886e-09
9.99886e-09
9.99886e-09
9.99886e-09
9.99886e-09
9.99886e-09
9.99886e-09
9.99886e-09
9.99886e-09
9.99886e-09
9.99886e-09
9.99886e-09
9.99886e-09
9.99886e-09
9.99886e-09
9.99886e-09
9.99886e-09
9.99886e-09
9.99886e-09
9.99886e-09
9.99886e-09
9.99886e-09
9.99886e-09
9.99886e-09
9.99886e-09
9.99886e-09
9.99886e-09
9.99886e-09
9.99886e-09
9.99886e-09
9.99886e-09
9.99886e-09
9.99886e-09
9.99886e-09
9.99886e-09
9.99886e-09
9.99886e-09
9.99886e-09
9.99886e-09
9.99886e-09
9.99886e-09
9.99886e-09
9.99886e-09
9.99886e-09
9.99885e-09
9.99885e-09
9.99885e-09
9.99885e-09
9.99885e-09
9.99885e-09
9.99885e-09
9.99885e-09
9.99885e-09
9.99885e-09
9.99885e-09
9.99884e-09
9.99884e-09
9.99884e-09
9.99884e-09
9.99884e-09
9.99884e-09
9.99884e-09
9.99884e-09
9.99884e-09
9.99884e-09
9.99883e-09
9.99883e-09
9.99883e-09
9.99883e-09
9.99883e-09
9.99883e-09
9.99883e-09
9.99883e-09
9.99883e-09
9.99883e-09
9.99883e-09
9.99883e-09
9.99883e-09
9.99883e-09
9.99883e-09
9.99882e-09
9.99882e-09
9.99882e-09
9.99882e-09
9.99882e-09
9.99882e-09
9.99882e-09
9.99882e-09
9.99882e-09
9.99882e-09
9.99882e-09
9.99882e-09
9.99882e-09
9.99882e-09
9.99881e-09
9.99881e-09
9.99881e-09
9.99881e-09
9.99881e-09
9.99881e-09
9.99881e-09
9.99881e-09
9.99881e-09
9.99881e-09
9.99881e-09
9.99881e-09
9.99881e-09
9.99881e-09
9.99881e-09
9.99881e-09
9.99881e-09
9.99881e-09
9.99881e-09
9.9988e-09
9.9988e-09
9.9988e-09
9.9988e-09
9.9988e-09
9.9988e-09
9.9988e-09
9.9988e-09
9.9988e-09
9.9988e-09
9.9988e-09
9.9988e-09
9.9988e-09
9.9988e-09
9.9988e-09
9.9988e-09
9.9988e-09
9.9988e-09
9.9988e-09
9.9988e-09
9.9988e-09
9.9988e-09
9.9988e-09
9.9988e-09
9.9988e-09
9.9988e-09
9.9988e-09
9.9988e-09
9.9988e-09
9.9988e-09
9.9988e-09
9.9988e-09
9.9988e-09
9.9988e-09
9.9988e-09
9.9988e-09
9.9988e-09
9.9988e-09
9.9988e-09
9.9988e-09
9.9988e-09
9.9988e-09
9.9988e-09
9.9988e-09
9.9988e-09
9.9988e-09
9.9988e-09
9.9988e-09
9.99879e-09
9.99879e-09
9.99879e-09
9.9988e-09
9.99879e-09
9.99879e-09
9.99878e-09
9.99877e-09
9.99877e-09
9.99876e-09
9.99876e-09
9.99876e-09
9.99876e-09
9.99876e-09
9.99876e-09
9.99876e-09
9.99876e-09
9.99876e-09
9.99876e-09
9.99876e-09
9.99876e-09
9.99876e-09
9.99877e-09
9.99877e-09
9.99877e-09
9.99877e-09
9.99877e-09
9.99878e-09
9.99878e-09
9.99878e-09
9.99878e-09
9.99878e-09
9.99879e-09
9.99879e-09
9.99879e-09
9.99879e-09
9.99879e-09
9.9988e-09
9.9988e-09
9.9988e-09
9.99881e-09
9.99881e-09
9.99882e-09
9.99882e-09
9.99882e-09
9.99883e-09
9.99883e-09
9.99883e-09
9.99883e-09
9.99883e-09
9.99883e-09
9.99883e-09
9.99884e-09
9.99884e-09
9.99884e-09
9.99884e-09
9.99884e-09
9.99884e-09
9.99884e-09
9.99884e-09
9.99884e-09
9.99884e-09
9.99884e-09
9.99884e-09
9.99884e-09
9.99884e-09
9.99885e-09
9.99885e-09
9.99885e-09
9.99884e-09
9.99884e-09
9.99884e-09
9.99884e-09
9.99884e-09
9.99884e-09
9.99884e-09
9.99884e-09
9.99884e-09
9.99885e-09
9.99885e-09
9.99885e-09
9.99885e-09
9.99885e-09
9.99885e-09
9.99884e-09
9.99884e-09
9.99884e-09
9.99884e-09
9.99884e-09
9.99885e-09
1.00034e-08
1.0003e-08
1.00027e-08
1.00024e-08
1.0002e-08
1.00018e-08
1.00018e-08
1.00017e-08
1.00016e-08
1.00016e-08
1.00015e-08
1.00015e-08
1.00014e-08
1.00014e-08
1.00013e-08
1.00012e-08
1.00012e-08
1.00011e-08
1.0001e-08
1.0001e-08
1.00009e-08
1.00009e-08
1.00008e-08
1.00008e-08
1.00008e-08
1.00007e-08
1.00007e-08
1.00007e-08
1.00007e-08
1.00007e-08
1.00007e-08
1.00007e-08
1.00008e-08
1.00008e-08
1.00007e-08
1.00008e-08
1.00008e-08
1.00009e-08
1.00009e-08
1.00009e-08
1.00009e-08
1.00009e-08
1.00008e-08
1.00007e-08
1.00006e-08
1.00005e-08
1.00004e-08
1.00003e-08
1.00003e-08
1.00003e-08
1.00003e-08
1.00004e-08
1.00005e-08
1.00006e-08
1.00008e-08
1.00009e-08
1.00011e-08
1.00012e-08
1.00013e-08
1.00014e-08
1.00015e-08
1.00015e-08
1.00015e-08
1.00015e-08
1.00015e-08
1.00016e-08
1.00016e-08
1.00016e-08
1.00016e-08
1.00016e-08
1.00016e-08
1.00016e-08
1.00017e-08
1.00017e-08
1.00018e-08
1.00018e-08
1.00018e-08
1.00018e-08
1.00017e-08
1.00018e-08
1.0002e-08
1.00023e-08
1.00022e-08
1.00023e-08
1.00025e-08
1.00027e-08
1.00027e-08
1.00026e-08
1.00023e-08
1.00026e-08
1.00004e-08
1.0001e-08
1.00019e-08
1.00021e-08
1.00017e-08
1.00019e-08
1.00016e-08
1.00015e-08
1.00017e-08
1.00017e-08
1.00018e-08
1.00019e-08
1.0002e-08
1.0002e-08
1.00023e-08
1.00023e-08
1.0002e-08
1.0002e-08
1.00019e-08
1.00018e-08
1.00017e-08
1.00016e-08
1.00016e-08
1.00016e-08
1.00016e-08
1.00015e-08
1.00014e-08
1.00013e-08
1.00014e-08
1.00014e-08
1.00016e-08
1.00015e-08
1.0002e-08
1.00019e-08
1.00014e-08
1.00014e-08
1.00012e-08
1.00011e-08
1.0001e-08
1.0001e-08
1.0001e-08
1.0001e-08
1.0001e-08
1.0001e-08
1.00009e-08
1.00009e-08
1.00009e-08
1.00009e-08
1.00009e-08
1.00008e-08
1.00008e-08
1.00008e-08
1.00008e-08
1.00008e-08
1.00007e-08
1.00007e-08
1.00007e-08
1.00007e-08
1.00007e-08
1.00006e-08
1.00006e-08
1.00006e-08
1.00006e-08
1.00006e-08
1.00006e-08
1.00005e-08
1.00005e-08
1.00005e-08
1.00005e-08
1.00005e-08
1.00005e-08
1.00005e-08
1.00004e-08
1.00004e-08
1.00004e-08
1.00004e-08
1.00004e-08
1.00004e-08
1.00004e-08
1.00004e-08
1.00003e-08
1.00003e-08
1.00003e-08
1.00003e-08
1.00003e-08
1.00003e-08
1.00003e-08
1.00003e-08
1.00002e-08
1.00002e-08
1.00002e-08
1.00002e-08
1.00002e-08
1.00002e-08
1.00002e-08
1.00002e-08
1.00001e-08
1.00001e-08
1.00001e-08
1.00001e-08
1.00001e-08
1.00001e-08
1.00001e-08
1.00001e-08
1.00001e-08
1e-08
1e-08
1e-08
1e-08
1e-08
1e-08
9.99999e-09
9.99998e-09
9.99997e-09
9.99996e-09
9.99995e-09
9.99994e-09
9.99993e-09
9.99992e-09
9.99992e-09
9.99991e-09
9.9999e-09
9.99989e-09
9.99989e-09
9.99988e-09
9.99987e-09
9.99986e-09
9.99986e-09
9.99985e-09
9.99985e-09
9.99984e-09
9.99983e-09
9.99983e-09
9.99982e-09
9.99981e-09
9.99981e-09
9.9998e-09
9.9998e-09
9.99979e-09
9.99979e-09
9.99979e-09
9.99978e-09
9.99978e-09
9.99978e-09
9.99977e-09
9.99977e-09
9.99976e-09
9.99976e-09
9.99976e-09
9.99975e-09
9.99975e-09
9.99975e-09
9.99975e-09
9.99974e-09
9.99974e-09
9.99974e-09
9.99974e-09
9.99973e-09
9.99973e-09
9.99973e-09
9.99973e-09
9.99972e-09
9.99972e-09
9.99972e-09
9.99972e-09
9.99972e-09
9.99972e-09
9.99971e-09
9.99971e-09
9.99971e-09
9.99971e-09
9.99971e-09
9.9997e-09
9.9997e-09
9.9997e-09
9.9997e-09
9.9997e-09
9.9997e-09
9.9997e-09
9.99969e-09
9.99969e-09
9.99969e-09
9.99969e-09
9.99969e-09
9.99969e-09
9.99969e-09
9.99969e-09
9.99969e-09
9.99969e-09
9.99969e-09
9.99968e-09
9.99968e-09
9.99968e-09
9.99968e-09
9.99968e-09
9.99968e-09
9.99968e-09
9.99968e-09
9.99968e-09
9.99968e-09
9.99968e-09
9.99968e-09
9.99968e-09
9.99968e-09
9.99968e-09
9.99968e-09
9.99968e-09
9.99968e-09
9.99968e-09
9.99968e-09
9.99968e-09
9.99968e-09
9.99968e-09
9.99968e-09
9.99968e-09
9.99969e-09
9.99969e-09
9.99969e-09
9.99969e-09
9.99969e-09
9.99969e-09
9.99969e-09
9.99969e-09
9.99969e-09
9.99969e-09
9.99969e-09
9.99969e-09
9.99969e-09
9.99969e-09
9.99969e-09
9.99969e-09
9.99969e-09
9.99969e-09
9.99969e-09
9.99969e-09
9.99969e-09
9.99969e-09
9.99969e-09
9.99969e-09
9.99969e-09
9.99969e-09
9.99968e-09
9.99968e-09
9.99968e-09
9.99968e-09
9.99968e-09
9.99968e-09
9.99968e-09
9.99968e-09
9.99968e-09
9.99968e-09
9.99968e-09
9.99968e-09
9.99968e-09
9.99968e-09
9.99968e-09
9.99968e-09
9.99968e-09
9.99967e-09
9.99967e-09
9.99967e-09
9.99967e-09
9.99967e-09
9.99967e-09
9.99967e-09
9.99967e-09
9.99967e-09
9.99967e-09
9.99967e-09
9.99967e-09
9.99967e-09
9.99966e-09
9.99966e-09
9.99966e-09
9.99966e-09
9.99966e-09
9.99966e-09
9.99966e-09
9.99966e-09
9.99966e-09
9.99966e-09
9.99966e-09
9.99966e-09
9.99966e-09
9.99965e-09
9.99965e-09
9.99965e-09
9.99965e-09
9.99965e-09
9.99965e-09
9.99965e-09
9.99965e-09
9.99965e-09
9.99965e-09
9.99965e-09
9.99965e-09
9.99965e-09
9.99965e-09
9.99965e-09
9.99965e-09
9.99965e-09
9.99964e-09
9.99964e-09
9.99964e-09
9.99964e-09
9.99964e-09
9.99964e-09
9.99964e-09
9.99964e-09
9.99964e-09
9.99964e-09
9.99964e-09
9.99964e-09
9.99964e-09
9.99964e-09
9.99964e-09
9.99964e-09
9.99964e-09
9.99964e-09
9.99964e-09
9.99964e-09
9.99964e-09
9.99964e-09
9.99964e-09
9.99963e-09
9.99963e-09
9.99963e-09
9.99963e-09
9.99963e-09
9.99963e-09
9.99963e-09
9.99963e-09
9.99963e-09
9.99963e-09
9.99963e-09
9.99963e-09
9.99963e-09
9.99963e-09
9.99963e-09
9.99963e-09
9.99963e-09
9.99963e-09
9.99963e-09
9.99963e-09
9.99963e-09
9.99963e-09
9.99963e-09
9.99963e-09
9.99963e-09
9.99963e-09
9.99963e-09
9.99963e-09
9.99963e-09
9.99963e-09
9.99963e-09
9.99963e-09
9.99963e-09
9.99963e-09
9.99963e-09
9.99963e-09
9.99963e-09
9.99963e-09
9.99963e-09
9.99963e-09
9.99963e-09
9.99963e-09
9.99963e-09
9.99963e-09
9.99963e-09
9.99963e-09
9.99963e-09
9.99963e-09
9.99963e-09
9.99963e-09
9.99961e-09
9.99961e-09
9.9996e-09
9.9996e-09
9.9996e-09
9.9996e-09
9.9996e-09
9.9996e-09
9.9996e-09
9.9996e-09
9.9996e-09
9.9996e-09
9.9996e-09
9.9996e-09
9.9996e-09
9.9996e-09
9.9996e-09
9.9996e-09
9.9996e-09
9.9996e-09
9.9996e-09
9.99961e-09
9.99961e-09
9.99961e-09
9.99961e-09
9.99961e-09
9.99961e-09
9.99962e-09
9.99962e-09
9.99962e-09
9.99962e-09
9.99962e-09
9.99963e-09
9.99963e-09
9.99963e-09
9.99963e-09
9.99964e-09
9.99964e-09
9.99964e-09
9.99965e-09
9.99965e-09
9.99965e-09
9.99965e-09
9.99966e-09
9.99966e-09
9.99966e-09
9.99966e-09
9.99966e-09
9.99966e-09
9.99966e-09
9.99966e-09
9.99966e-09
9.99966e-09
9.99967e-09
9.99967e-09
9.99967e-09
9.99967e-09
9.99967e-09
9.99967e-09
9.99967e-09
9.99967e-09
9.99967e-09
9.99967e-09
9.99967e-09
9.99967e-09
9.99967e-09
9.99967e-09
9.99967e-09
9.99967e-09
9.99967e-09
9.99967e-09
9.99967e-09
9.99967e-09
9.99967e-09
9.99967e-09
9.99967e-09
9.99967e-09
9.99967e-09
9.99967e-09
9.99967e-09
9.99967e-09
9.99967e-09
9.99967e-09
9.99967e-09
9.99967e-09
9.99966e-09
1.00018e-08
1.00019e-08
1.00019e-08
1.00019e-08
1.00018e-08
1.00018e-08
1.00018e-08
1.00018e-08
1.00017e-08
1.00017e-08
1.00017e-08
1.00017e-08
1.00017e-08
1.00016e-08
1.00016e-08
1.00015e-08
1.00014e-08
1.00014e-08
1.00013e-08
1.00013e-08
1.00012e-08
1.00012e-08
1.00012e-08
1.00012e-08
1.00012e-08
1.00012e-08
1.00012e-08
1.00012e-08
1.00013e-08
1.00013e-08
1.00013e-08
1.00014e-08
1.00014e-08
1.00015e-08
1.00015e-08
1.00015e-08
1.00015e-08
1.00016e-08
1.00016e-08
1.00016e-08
1.00016e-08
1.00016e-08
1.00015e-08
1.00014e-08
1.00014e-08
1.00013e-08
1.00012e-08
1.00012e-08
1.00012e-08
1.00013e-08
1.00013e-08
1.00014e-08
1.00015e-08
1.00016e-08
1.00017e-08
1.00018e-08
1.00019e-08
1.00019e-08
1.0002e-08
1.0002e-08
1.0002e-08
1.00019e-08
1.00019e-08
1.00019e-08
1.00019e-08
1.0002e-08
1.0002e-08
1.0002e-08
1.0002e-08
1.00021e-08
1.00021e-08
1.00021e-08
1.00021e-08
1.00021e-08
1.00021e-08
1.00021e-08
1.00021e-08
1.00021e-08
1.00021e-08
1.0002e-08
1.00011e-08
1.00014e-08
1.0002e-08
1.00022e-08
1.00026e-08
1.00025e-08
1.00025e-08
1.00025e-08
1.00028e-08
1.00029e-08
1.00029e-08
1.00026e-08
1.00027e-08
1.00006e-08
1.00009e-08
1.00023e-08
1.00024e-08
1.0002e-08
1.00021e-08
1.00018e-08
1.00017e-08
1.00018e-08
1.00019e-08
1.0002e-08
1.0002e-08
1.0002e-08
1.00021e-08
1.00021e-08
1.00023e-08
1.00023e-08
1.0002e-08
1.0002e-08
1.00018e-08
1.00017e-08
1.00016e-08
1.00015e-08
1.00015e-08
1.00015e-08
1.00014e-08
1.00013e-08
1.00013e-08
1.00014e-08
1.00014e-08
1.00015e-08
1.00015e-08
1.00019e-08
1.00019e-08
1.00014e-08
1.00014e-08
1.00011e-08
1.00011e-08
1.0001e-08
1.0001e-08
1.0001e-08
1.0001e-08
1.0001e-08
1.00009e-08
1.00009e-08
1.00009e-08
1.00009e-08
1.00008e-08
1.00008e-08
1.00008e-08
1.00008e-08
1.00008e-08
1.00007e-08
1.00007e-08
1.00007e-08
1.00007e-08
1.00007e-08
1.00006e-08
1.00006e-08
1.00006e-08
1.00006e-08
1.00006e-08
1.00006e-08
1.00005e-08
1.00005e-08
1.00005e-08
1.00005e-08
1.00005e-08
1.00005e-08
1.00005e-08
1.00004e-08
1.00004e-08
1.00004e-08
1.00004e-08
1.00004e-08
1.00004e-08
1.00004e-08
1.00004e-08
1.00003e-08
1.00003e-08
1.00003e-08
1.00003e-08
1.00003e-08
1.00003e-08
1.00003e-08
1.00003e-08
1.00002e-08
1.00002e-08
1.00002e-08
1.00002e-08
1.00002e-08
1.00002e-08
1.00002e-08
1.00002e-08
1.00001e-08
1.00001e-08
1.00001e-08
1.00001e-08
1.00001e-08
1.00001e-08
1.00001e-08
1.00001e-08
1.00001e-08
1e-08
1e-08
1e-08
1e-08
1e-08
9.99999e-09
9.99998e-09
9.99997e-09
9.99996e-09
9.99995e-09
9.99994e-09
9.99993e-09
9.99993e-09
9.99992e-09
9.99991e-09
9.9999e-09
9.9999e-09
9.99989e-09
9.99988e-09
9.99988e-09
9.99987e-09
9.99986e-09
9.99986e-09
9.99985e-09
9.99984e-09
9.99984e-09
9.99983e-09
9.99982e-09
9.99982e-09
9.99981e-09
9.99981e-09
9.9998e-09
9.9998e-09
9.99979e-09
9.99979e-09
9.99978e-09
9.99978e-09
9.99978e-09
9.99977e-09
9.99977e-09
9.99977e-09
9.99976e-09
9.99976e-09
9.99976e-09
9.99975e-09
9.99975e-09
9.99975e-09
9.99974e-09
9.99974e-09
9.99974e-09
9.99974e-09
9.99973e-09
9.99973e-09
9.99973e-09
9.99973e-09
9.99973e-09
9.99972e-09
9.99972e-09
9.99972e-09
9.99972e-09
9.99972e-09
9.99971e-09
9.99971e-09
9.99971e-09
9.99971e-09
9.99971e-09
9.99971e-09
9.9997e-09
9.9997e-09
9.9997e-09
9.9997e-09
9.9997e-09
9.9997e-09
9.9997e-09
9.9997e-09
9.99969e-09
9.99969e-09
9.99969e-09
9.99969e-09
9.99969e-09
9.99969e-09
9.99969e-09
9.99969e-09
9.99969e-09
9.99968e-09
9.99968e-09
9.99968e-09
9.99968e-09
9.99968e-09
9.99968e-09
9.99968e-09
9.99968e-09
9.99968e-09
9.99968e-09
9.99968e-09
9.99968e-09
9.99968e-09
9.99968e-09
9.99968e-09
9.99968e-09
9.99968e-09
9.99968e-09
9.99968e-09
9.99968e-09
9.99968e-09
9.99968e-09
9.99968e-09
9.99968e-09
9.99968e-09
9.99968e-09
9.99969e-09
9.99969e-09
9.99969e-09
9.99969e-09
9.99969e-09
9.99969e-09
9.99969e-09
9.99969e-09
9.99969e-09
9.99969e-09
9.99969e-09
9.99969e-09
9.99969e-09
9.99969e-09
9.99969e-09
9.99969e-09
9.99969e-09
9.99969e-09
9.99969e-09
9.99969e-09
9.99969e-09
9.99969e-09
9.99969e-09
9.99969e-09
9.99968e-09
9.99968e-09
9.99968e-09
9.99968e-09
9.99968e-09
9.99968e-09
9.99968e-09
9.99968e-09
9.99968e-09
9.99968e-09
9.99968e-09
9.99968e-09
9.99968e-09
9.99968e-09
9.99968e-09
9.99968e-09
9.99968e-09
9.99968e-09
9.99968e-09
9.99967e-09
9.99967e-09
9.99967e-09
9.99967e-09
9.99967e-09
9.99967e-09
9.99967e-09
9.99967e-09
9.99967e-09
9.99967e-09
9.99967e-09
9.99967e-09
9.99967e-09
9.99966e-09
9.99966e-09
9.99966e-09
9.99966e-09
9.99966e-09
9.99966e-09
9.99966e-09
9.99966e-09
9.99966e-09
9.99966e-09
9.99966e-09
9.99966e-09
9.99966e-09
9.99966e-09
9.99966e-09
9.99966e-09
9.99965e-09
9.99965e-09
9.99965e-09
9.99965e-09
9.99965e-09
9.99965e-09
9.99965e-09
9.99965e-09
9.99965e-09
9.99965e-09
9.99965e-09
9.99965e-09
9.99965e-09
9.99965e-09
9.99965e-09
9.99965e-09
9.99964e-09
9.99964e-09
9.99964e-09
9.99964e-09
9.99964e-09
9.99964e-09
9.99964e-09
9.99964e-09
9.99964e-09
9.99964e-09
9.99964e-09
9.99964e-09
9.99964e-09
9.99964e-09
9.99964e-09
9.99964e-09
9.99964e-09
9.99964e-09
9.99964e-09
9.99964e-09
9.99964e-09
9.99964e-09
9.99964e-09
9.99964e-09
9.99964e-09
9.99964e-09
9.99964e-09
9.99964e-09
9.99964e-09
9.99964e-09
9.99964e-09
9.99964e-09
9.99964e-09
9.99964e-09
9.99964e-09
9.99964e-09
9.99964e-09
9.99964e-09
9.99964e-09
9.99964e-09
9.99964e-09
9.99964e-09
9.99964e-09
9.99964e-09
9.99964e-09
9.99964e-09
9.99964e-09
9.99964e-09
9.99964e-09
9.99964e-09
9.99964e-09
9.99964e-09
9.99964e-09
9.99963e-09
9.99963e-09
9.99963e-09
9.99963e-09
9.99963e-09
9.99963e-09
9.99963e-09
9.99963e-09
9.99963e-09
9.99963e-09
9.99964e-09
9.99963e-09
9.99964e-09
9.99964e-09
9.99962e-09
9.99962e-09
9.99961e-09
9.99961e-09
9.99961e-09
9.99961e-09
9.99961e-09
9.99961e-09
9.9996e-09
9.9996e-09
9.9996e-09
9.9996e-09
9.9996e-09
9.9996e-09
9.9996e-09
9.9996e-09
9.9996e-09
9.9996e-09
9.9996e-09
9.9996e-09
9.9996e-09
9.9996e-09
9.99961e-09
9.99961e-09
9.99961e-09
9.99961e-09
9.99961e-09
9.99962e-09
9.99962e-09
9.99962e-09
9.99962e-09
9.99962e-09
9.99962e-09
9.99963e-09
9.99963e-09
9.99963e-09
9.99963e-09
9.99964e-09
9.99964e-09
9.99964e-09
9.99964e-09
9.99965e-09
9.99965e-09
9.99965e-09
9.99965e-09
9.99966e-09
9.99966e-09
9.99966e-09
9.99966e-09
9.99966e-09
9.99966e-09
9.99966e-09
9.99966e-09
9.99967e-09
9.99967e-09
9.99967e-09
9.99967e-09
9.99967e-09
9.99967e-09
9.99967e-09
9.99967e-09
9.99967e-09
9.99967e-09
9.99967e-09
9.99967e-09
9.99967e-09
9.99967e-09
9.99967e-09
9.99967e-09
9.99967e-09
9.99967e-09
9.99967e-09
9.99967e-09
9.99967e-09
9.99967e-09
9.99967e-09
9.99967e-09
9.99967e-09
9.99967e-09
9.99967e-09
9.99967e-09
9.99967e-09
9.99967e-09
9.99967e-09
9.99967e-09
9.99967e-09
9.99967e-09
9.99967e-09
9.99966e-09
1.00025e-08
1.00027e-08
1.00026e-08
1.00026e-08
1.00025e-08
1.00024e-08
1.00024e-08
1.00023e-08
1.00023e-08
1.00023e-08
1.00022e-08
1.00022e-08
1.00022e-08
1.00021e-08
1.00021e-08
1.00021e-08
1.0002e-08
1.00019e-08
1.00019e-08
1.00018e-08
1.00018e-08
1.00018e-08
1.00018e-08
1.00017e-08
1.00017e-08
1.00017e-08
1.00017e-08
1.00017e-08
1.00017e-08
1.00018e-08
1.00018e-08
1.00018e-08
1.00018e-08
1.00017e-08
1.00017e-08
1.00016e-08
1.00015e-08
1.00015e-08
1.00015e-08
1.00015e-08
1.00016e-08
1.00016e-08
1.00017e-08
1.00018e-08
1.00018e-08
1.00019e-08
1.0002e-08
1.00021e-08
1.00022e-08
1.00023e-08
1.00024e-08
1.00025e-08
1.00025e-08
1.00025e-08
1.00025e-08
1.00025e-08
1.00025e-08
1.00025e-08
1.00025e-08
1.00024e-08
1.00024e-08
1.00024e-08
1.00023e-08
1.00023e-08
1.00023e-08
1.00024e-08
1.00024e-08
1.00024e-08
1.00025e-08
1.00025e-08
1.00025e-08
1.00025e-08
1.00025e-08
1.00025e-08
1.00024e-08
1.00024e-08
1.00024e-08
1.00024e-08
1.00024e-08
1.00023e-08
1.00022e-08
1.0002e-08
1.00016e-08
1.00021e-08
1.00021e-08
1.00023e-08
1.00024e-08
1.00025e-08
1.00029e-08
1.00029e-08
1.00029e-08
1.00031e-08
1.00031e-08
1.00031e-08
1.00028e-08
1.00029e-08
1.0001e-08
1.0001e-08
1.00025e-08
1.00026e-08
1.00021e-08
1.00022e-08
1.0002e-08
1.00018e-08
1.0002e-08
1.0002e-08
1.00021e-08
1.00021e-08
1.00021e-08
1.00022e-08
1.00021e-08
1.00023e-08
1.00023e-08
1.00019e-08
1.00019e-08
1.00017e-08
1.00016e-08
1.00015e-08
1.00014e-08
1.00015e-08
1.00014e-08
1.00014e-08
1.00013e-08
1.00013e-08
1.00013e-08
1.00013e-08
1.00015e-08
1.00015e-08
1.00019e-08
1.00019e-08
1.00014e-08
1.00014e-08
1.00011e-08
1.00011e-08
1.00011e-08
1.0001e-08
1.00009e-08
1.0001e-08
1.00009e-08
1.00009e-08
1.00009e-08
1.00009e-08
1.00008e-08
1.00008e-08
1.00008e-08
1.00008e-08
1.00008e-08
1.00007e-08
1.00007e-08
1.00007e-08
1.00007e-08
1.00007e-08
1.00006e-08
1.00006e-08
1.00006e-08
1.00006e-08
1.00006e-08
1.00006e-08
1.00006e-08
1.00005e-08
1.00005e-08
1.00005e-08
1.00005e-08
1.00005e-08
1.00005e-08
1.00005e-08
1.00004e-08
1.00004e-08
1.00004e-08
1.00004e-08
1.00004e-08
1.00004e-08
1.00004e-08
1.00003e-08
1.00003e-08
1.00003e-08
1.00003e-08
1.00003e-08
1.00003e-08
1.00003e-08
1.00003e-08
1.00002e-08
1.00002e-08
1.00002e-08
1.00002e-08
1.00002e-08
1.00002e-08
1.00002e-08
1.00002e-08
1.00001e-08
1.00001e-08
1.00001e-08
1.00001e-08
1.00001e-08
1.00001e-08
1.00001e-08
1.00001e-08
1e-08
1e-08
1e-08
1e-08
1e-08
9.99999e-09
9.99998e-09
9.99997e-09
9.99996e-09
9.99995e-09
9.99994e-09
9.99993e-09
9.99992e-09
9.99992e-09
9.99991e-09
9.9999e-09
9.9999e-09
9.99989e-09
9.99988e-09
9.99987e-09
9.99987e-09
9.99986e-09
9.99985e-09
9.99984e-09
9.99984e-09
9.99983e-09
9.99982e-09
9.99982e-09
9.99981e-09
9.99981e-09
9.9998e-09
9.9998e-09
9.99979e-09
9.99979e-09
9.99978e-09
9.99978e-09
9.99978e-09
9.99977e-09
9.99977e-09
9.99977e-09
9.99976e-09
9.99976e-09
9.99976e-09
9.99975e-09
9.99975e-09
9.99975e-09
9.99974e-09
9.99974e-09
9.99974e-09
9.99973e-09
9.99973e-09
9.99973e-09
9.99973e-09
9.99973e-09
9.99972e-09
9.99972e-09
9.99972e-09
9.99972e-09
9.99972e-09
9.99971e-09
9.99971e-09