/*--------------------------------*- C++ -*----------------------------------*\
| =========                 |                                                 |
| \\      /  F ield         | OpenFOAM: The Open Source CFD Toolbox           |
|  \\    /   O peration     | Version:  v2006                                 |
|   \\  /    A nd           | Website:  www.openfoam.com                      |
|    \\/     M anipulation  |                                                 |
\*---------------------------------------------------------------------------*/
FoamFile
{
    version     2.0;
    format      ascii;
    class       volScalarField;
    location    "0.4";
    object      omega;
}
// * * * * * * * * * * * * * * * * * * * * * * * * * * * * * * * * * * * * * //

dimensions      [0 0 -1 0 0 0 0];


internalField   nonuniform List<scalar> 
33000
(
0.801458
0.801519
0.80152
0.801519
0.801519
0.801518
0.801518
0.801517
0.801517
0.801516
0.801516
0.801515
0.801515
0.801514
0.801513
0.801513
0.801512
0.801511
0.80151
0.801509
0.801508
0.801507
0.801506
0.801505
0.801504
0.801503
0.801501
0.8015
0.801498
0.801497
0.801495
0.801494
0.801492
0.801491
0.801489
0.801487
0.801485
0.801483
0.80148
0.801477
0.801475
0.801472
0.801469
0.801466
0.801463
0.801459
0.801454
0.80145
0.801446
0.801441
0.801436
0.801432
0.801427
0.801423
0.801419
0.801414
0.80141
0.801406
0.801402
0.801397
0.801393
0.801389
0.801385
0.801381
0.801376
0.801372
0.801368
0.801364
0.80136
0.801355
0.801351
0.801346
0.801341
0.801335
0.801328
0.801319
0.801307
0.801306
0.801262
0.801264
0.801255
0.801256
0.801255
0.801254
0.801255
0.801254
0.801253
0.801252
0.801251
0.801251
0.80125
0.80125
0.801249
0.801248
0.801248
0.801247
0.801246
0.801245
0.801245
0.801243
0.801243
0.801242
0.801241
0.801241
0.80124
0.801239
0.801239
0.801238
0.801237
0.801237
0.801236
0.801236
0.801235
0.801234
0.801234
0.801233
0.801232
0.801231
0.801231
0.80123
0.80123
0.801229
0.801229
0.801228
0.801228
0.801228
0.801227
0.801227
0.801226
0.801226
0.801225
0.801225
0.801225
0.801224
0.801224
0.801223
0.801223
0.801223
0.801222
0.801222
0.801222
0.801221
0.801221
0.801221
0.80122
0.80122
0.80122
0.801219
0.801219
0.801219
0.801218
0.801218
0.801218
0.801218
0.801217
0.801217
0.801217
0.801217
0.801216
0.801216
0.801216
0.801216
0.801215
0.801215
0.801215
0.801215
0.801215
0.801214
0.801214
0.801214
0.801214
0.801214
0.801213
0.801213
0.801213
0.801213
0.801213
0.801213
0.801212
0.801212
0.801212
0.801212
0.801212
0.801212
0.801212
0.801211
0.801211
0.801211
0.801211
0.801211
0.801211
0.801211
0.801211
0.80121
0.80121
0.80121
0.80121
0.80121
0.80121
0.80121
0.80121
0.80121
0.80121
0.80121
0.801209
0.801209
0.801209
0.801209
0.801209
0.801209
0.801209
0.801209
0.801209
0.801209
0.801209
0.801209
0.801209
0.801209
0.801208
0.801208
0.801208
0.801208
0.801208
0.801208
0.801208
0.801208
0.801208
0.801208
0.801208
0.801208
0.801208
0.801208
0.801208
0.801208
0.801208
0.801208
0.801208
0.801208
0.801208
0.801208
0.801208
0.801207
0.801207
0.801207
0.801207
0.801207
0.801207
0.801207
0.801207
0.801207
0.801207
0.801207
0.801207
0.801207
0.801207
0.801207
0.801207
0.801207
0.801207
0.801207
0.801207
0.801207
0.801207
0.801207
0.801207
0.801207
0.801207
0.801207
0.801207
0.801207
0.801207
0.801207
0.801207
0.801207
0.801207
0.801207
0.801207
0.801207
0.801207
0.801207
0.801207
0.801207
0.801207
0.801207
0.801207
0.801207
0.801207
0.801207
0.801207
0.801207
0.801207
0.801207
0.801207
0.801207
0.801207
0.801207
0.801206
0.801206
0.801206
0.801206
0.801206
0.801206
0.801206
0.801206
0.801206
0.801206
0.801206
0.801206
0.801206
0.801206
0.801206
0.801206
0.801206
0.801206
0.801206
0.801206
0.801206
0.801206
0.801206
0.801206
0.801206
0.801206
0.801206
0.801206
0.801206
0.801206
0.801206
0.801206
0.801206
0.801206
0.801206
0.801206
0.801206
0.801206
0.801206
0.801206
0.801206
0.801206
0.801206
0.801206
0.801206
0.801206
0.801206
0.801206
0.801206
0.801206
0.801206
0.801206
0.801206
0.801206
0.801206
0.801206
0.801206
0.801206
0.801206
0.801206
0.801206
0.801206
0.801206
0.801206
0.801206
0.801206
0.801206
0.801206
0.801206
0.801206
0.801206
0.801206
0.801206
0.801206
0.801206
0.801206
0.801206
0.801206
0.801206
0.801206
0.801206
0.801206
0.801206
0.801206
0.801206
0.801206
0.801206
0.801206
0.801206
0.801206
0.801206
0.801206
0.801206
0.801206
0.801206
0.801206
0.801206
0.801206
0.801206
0.801206
0.801206
0.801206
0.801206
0.801206
0.801206
0.801206
0.801206
0.801206
0.801206
0.801206
0.801206
0.801206
0.801206
0.801206
0.801206
0.801206
0.801206
0.801206
0.801206
0.801206
0.801206
0.801206
0.801206
0.801206
0.801206
0.801206
0.801206
0.801206
0.801206
0.801206
0.801206
0.801206
0.801206
0.801206
0.801206
0.801206
0.801206
0.801206
0.801206
0.801206
0.801206
0.801206
0.801206
0.801206
0.801206
0.801206
0.801206
0.801206
0.801206
0.801206
0.801206
0.801206
0.801206
0.801206
0.801206
0.801206
0.801206
0.801206
0.801206
0.801206
0.801206
0.801206
0.801206
0.801206
0.801206
0.801206
0.801206
0.801206
0.801206
0.801206
0.801206
0.801206
0.801206
0.801206
0.801206
0.801206
0.801206
0.801206
0.801206
0.801206
0.801206
0.801206
0.801206
0.801206
0.801206
0.801206
0.801206
0.801206
0.801206
0.801206
0.801206
0.801206
0.801206
0.801206
0.801206
0.801206
0.801206
0.801206
0.801206
0.801206
0.801206
0.801206
0.801206
0.801206
0.801206
0.801206
0.801206
0.801206
0.801206
0.801206
0.801206
0.801206
0.801206
0.801206
0.801206
0.801206
0.801206
0.801206
0.801206
0.801206
0.801206
0.801206
0.801206
0.801206
0.801206
0.801206
0.801206
0.801206
0.801206
0.801206
0.801206
0.801206
0.801206
0.801206
0.801206
0.801206
0.801206
0.801206
0.801206
0.801206
0.801206
0.801206
0.801206
0.801206
0.801206
0.801206
0.801206
0.801206
0.801206
0.801206
0.801206
0.801206
0.801206
0.801207
0.00257423
0.00307627
0.00312145
0.00318707
0.00325909
0.00332845
0.00337104
0.00340744
0.00344329
0.00347627
0.00350949
0.00354381
0.00357671
0.00360949
0.00364155
0.0036719
0.00370068
0.00372814
0.00375427
0.00377974
0.00380508
0.00383032
0.00385264
0.00386794
0.0038735
0.00387344
0.00387421
0.00387502
0.00387648
0.00387818
0.00387945
0.00388018
0.00388066
0.00388073
0.00387995
0.0038783
0.00387608
0.00387336
0.00386963
0.00386529
0.00386437
0.00386174
0.00385733
0.00385089
0.00384215
0.00383127
0.00381817
0.00380389
0.00378889
0.00377331
0.0037575
0.00374182
0.00372674
0.00371273
0.0037003
0.00368938
0.00367959
0.00367058
0.00366257
0.00365634
0.00365229
0.00365075
0.00365154
0.00365529
0.00366341
0.00367706
0.00369747
0.00372692
0.00377002
0.00383308
0.0039242
0.00405749
0.00426174
0.00458562
0.00511191
0.00599256
0.00748566
0.0102908
0.00903819
0.004407
0.0032933
0.00193296
0.00238326
0.00200595
0.00205037
0.00248957
0.00262055
0.00292637
0.00261256
0.00256739
0.00249778
0.00256292
0.00258279
0.00261642
0.00263927
0.00262032
0.00262922
0.00264318
0.00269025
0.00267625
0.00263093
0.00256259
0.0025502
0.00260588
0.00259814
0.0026175
0.00262981
0.0026354
0.00264717
0.0026514
0.00264983
0.00265522
0.00266235
0.00267041
0.00268511
0.00270308
0.00275846
0.00274188
0.00269265
0.00260891
0.00259597
0.00266747
0.00266367
0.0026924
0.00270754
0.00272403
0.00273225
0.00272906
0.00273386
0.00274106
0.00274652
0.00275266
0.00275916
0.00276551
0.00277238
0.00277931
0.00278598
0.00279288
0.00280013
0.00280673
0.00281364
0.0028208
0.0028281
0.0028348
0.00284208
0.00284982
0.00285625
0.00286282
0.00286985
0.00287698
0.00288321
0.00288933
0.00289591
0.00290177
0.00290724
0.00291336
0.00291994
0.00292511
0.00293008
0.00293445
0.00293858
0.00294253
0.00294646
0.00294986
0.0029531
0.00295658
0.00295977
0.00296131
0.00296307
0.00296352
0.00296262
0.00296164
0.00296091
0.00296037
0.00295973
0.00295806
0.00295656
0.00295519
0.00295372
0.00295223
0.00295086
0.00294953
0.00294807
0.00294656
0.00294517
0.00294388
0.00294256
0.00294124
0.00293998
0.00293878
0.00293756
0.00293628
0.00293499
0.00293377
0.00293263
0.00293152
0.00293042
0.00292937
0.00292836
0.00292737
0.00292641
0.00292548
0.00292455
0.00292364
0.00292275
0.00292186
0.00292094
0.00292005
0.00291917
0.00291825
0.00291737
0.00291662
0.002916
0.00291539
0.00291475
0.0029142
0.0029137
0.00291315
0.00291251
0.0029119
0.00291139
0.00291087
0.00291033
0.00290984
0.00290945
0.00290908
0.00290864
0.00290816
0.0029077
0.00290726
0.0029068
0.00290635
0.00290593
0.00290552
0.00290511
0.00290474
0.00290441
0.0029041
0.00290373
0.00290331
0.00290289
0.00290251
0.00290219
0.00290192
0.00290169
0.00290146
0.0029012
0.00290092
0.00290069
0.00290053
0.00290036
0.00290009
0.00289974
0.00289944
0.00289926
0.00289912
0.00289889
0.00289855
0.0028982
0.00289796
0.00289782
0.00289771
0.00289759
0.00289746
0.00289732
0.00289714
0.00289695
0.00289677
0.00289658
0.00289635
0.0028961
0.00289589
0.00289577
0.00289567
0.00289559
0.00289552
0.00289546
0.00289541
0.00289536
0.00289533
0.00289532
0.00289529
0.00289523
0.00289513
0.00289502
0.00289491
0.00289481
0.0028947
0.00289457
0.00289445
0.00289433
0.00289422
0.00289412
0.00289405
0.00289401
0.00289399
0.00289397
0.00289394
0.00289389
0.00289385
0.0028938
0.00289376
0.00289371
0.00289363
0.00289352
0.0028934
0.00289329
0.00289319
0.00289311
0.00289306
0.00289304
0.00289304
0.00289307
0.00289309
0.00289312
0.00289312
0.0028931
0.00289305
0.00289297
0.00289288
0.00289278
0.00289267
0.00289256
0.00289244
0.00289234
0.00289229
0.0028923
0.00289236
0.00289242
0.00289243
0.00289241
0.00289238
0.00289232
0.00289222
0.00289206
0.00289188
0.00289175
0.00289169
0.00289167
0.00289166
0.00289167
0.00289173
0.00289181
0.00289187
0.00289188
0.00289185
0.00289181
0.00289175
0.00289166
0.00289157
0.00289152
0.00289151
0.00289152
0.00289157
0.00289165
0.00289171
0.00289172
0.0028917
0.00289164
0.00289158
0.00289149
0.0028914
0.00289136
0.00289137
0.00289143
0.00289149
0.00289154
0.00289158
0.00289158
0.00289153
0.00289145
0.00289135
0.00289127
0.00289123
0.00289121
0.0028912
0.00289119
0.00289119
0.00289117
0.00289112
0.00289101
0.0028909
0.00289081
0.00289078
0.00289081
0.00289087
0.00289093
0.00289096
0.00289093
0.00289087
0.00289079
0.00289073
0.00289072
0.00289076
0.00289083
0.00289092
0.00289098
0.00289099
0.00289092
0.00289081
0.0028907
0.00289066
0.00289066
0.00289067
0.00289068
0.00289068
0.00289063
0.00289055
0.0028905
0.00289051
0.00289055
0.00289059
0.00289058
0.00289053
0.00289047
0.00289043
0.00289041
0.00289042
0.00289043
0.00289042
0.00289039
0.00289046
0.00289062
0.00289072
0.00289081
0.00289076
0.00289067
0.00289067
0.00289069
0.00289077
0.00289071
0.00289061
0.00289048
0.00289048
0.00289054
0.00289067
0.00289081
0.00289074
0.00289082
0.00289064
0.00289079
0.00289116
0.00289117
0.00289115
0.00289093
0.00289108
0.00289108
0.00289086
0.00289081
0.00289065
0.00289086
0.00289071
0.00289093
0.00289097
0.0028912
0.00289097
0.0028906
0.00289097
0.00289058
0.0028904
0.0028907
0.00289057
0.00289058
0.00289052
0.00289073
0.00289021
0.00289049
0.00289123
0.00289161
0.00289248
0.00289193
0.00289136
0.00289155
0.00289143
0.00289127
0.00289139
0.00289156
0.00289166
0.0028917
0.00289173
0.00289162
0.0028913
0.00289097
0.00289085
0.00289091
0.00289094
0.00289082
0.0028906
0.00289043
0.00289038
0.00289041
0.00289057
0.00289083
0.00289111
0.0028914
0.00289159
0.00289168
0.00289167
0.00289153
0.00289122
0.00289074
0.00289027
0.00289024
0.00289023
0.00289022
0.00289022
0.00289022
0.00289022
0.00289022
0.00289022
0.00289023
0.00289025
0.00289032
0.00289048
0.00289075
0.0028909
0.00289089
0.00289077
0.00289054
0.00289044
0.00289037
0.00289033
0.00289036
0.00289048
0.00289076
0.00289102
0.00289069
0.00289047
0.00289039
0.00289055
0.00289173
0.00289267
0.00289227
0.00289109
0.00289074
0.00289168
0.00289271
0.0028921
0.00289062
0.00289045
0.00289075
0.00289086
0.00289036
0.00289021
0.00289063
0.00289173
0.00289133
0.00289274
0.00289286
0.00286852
0.00108455
0.00108312
0.00103674
0.00101327
0.00101096
0.00101113
0.00101152
0.00101188
0.00101222
0.00101255
0.00101289
0.00101322
0.00101353
0.00101383
0.00101412
0.00101439
0.00101464
0.00101486
0.00101508
0.00101528
0.00101549
0.00101569
0.00101586
0.00101598
0.00101605
0.00101608
0.00101611
0.00101615
0.0010162
0.00101625
0.00101627
0.00101629
0.0010163
0.0010163
0.00101629
0.00101626
0.00101623
0.0010162
0.00101616
0.00101615
0.00101613
0.00101609
0.00101603
0.00101596
0.00101587
0.00101577
0.00101565
0.00101552
0.00101539
0.00101524
0.0010151
0.00101497
0.00101483
0.00101471
0.0010146
0.00101449
0.0010144
0.00101431
0.00101424
0.00101418
0.00101414
0.00101412
0.00101412
0.00101415
0.00101422
0.00101434
0.00101451
0.00101475
0.0010151
0.00101558
0.00101625
0.0010172
0.00101858
0.00102069
0.00102405
0.00102973
0.00103967
0.00106073
0.00105871
0.00103403
0.00103
0.00102413
0.00102185
0.00103978
0.00103735
0.00102211
0.00101878
0.00101544
0.00100532
0.00100708
0.00100301
0.00100324
0.00100354
0.00100373
0.0010034
0.00100354
0.00100333
0.00100328
0.00100347
0.00100346
0.00100345
0.00100337
0.00100343
0.00100349
0.0010037
0.00100371
0.0010035
0.00100351
0.00100344
0.00100338
0.00100336
0.00100332
0.00100331
0.00100334
0.00100335
0.00100336
0.00100341
0.00100338
0.00100335
0.00100322
0.00100325
0.00100334
0.00100356
0.00100358
0.00100334
0.00100336
0.0010033
0.00100329
0.00100328
0.00100329
0.00100332
0.00100333
0.00100335
0.00100336
0.00100338
0.0010034
0.00100342
0.00100344
0.00100346
0.00100348
0.00100351
0.00100353
0.00100356
0.00100358
0.00100361
0.00100363
0.00100366
0.00100369
0.00100371
0.00100374
0.00100377
0.0010038
0.00100383
0.00100386
0.00100389
0.00100392
0.00100395
0.00100398
0.00100401
0.00100404
0.00100406
0.00100409
0.00100412
0.00100415
0.00100418
0.00100421
0.00100423
0.00100426
0.00100428
0.0010043
0.00100432
0.00100434
0.00100436
0.00100438
0.00100441
0.00100443
0.00100445
0.00100446
0.00100448
0.0010045
0.00100452
0.00100454
0.00100456
0.00100459
0.00100461
0.00100464
0.00100466
0.00100468
0.0010047
0.00100471
0.00100473
0.00100475
0.00100478
0.00100481
0.00100484
0.00100487
0.00100489
0.00100491
0.00100492
0.00100494
0.00100495
0.00100497
0.00100498
0.001005
0.00100502
0.00100503
0.00100503
0.00100504
0.00100505
0.00100506
0.00100506
0.00100507
0.00100509
0.0010051
0.00100511
0.00100511
0.00100512
0.00100512
0.00100513
0.00100513
0.00100514
0.00100514
0.00100514
0.00100514
0.00100514
0.00100514
0.00100513
0.00100513
0.00100513
0.00100513
0.00100512
0.00100512
0.00100512
0.00100512
0.00100511
0.00100511
0.00100511
0.00100511
0.0010051
0.0010051
0.0010051
0.0010051
0.0010051
0.00100509
0.00100509
0.00100509
0.00100509
0.00100509
0.00100509
0.00100509
0.00100508
0.00100508
0.00100508
0.00100508
0.00100508
0.00100508
0.00100508
0.00100508
0.00100507
0.00100507
0.00100507
0.00100507
0.00100507
0.00100507
0.00100507
0.00100507
0.00100507
0.00100507
0.00100507
0.00100506
0.00100506
0.00100506
0.00100506
0.00100506
0.00100506
0.00100506
0.00100506
0.00100506
0.00100506
0.00100506
0.00100506
0.00100506
0.00100506
0.00100506
0.00100506
0.00100506
0.00100506
0.00100506
0.00100505
0.00100505
0.00100505
0.00100505
0.00100505
0.00100505
0.00100505
0.00100505
0.00100505
0.00100505
0.00100505
0.00100505
0.00100505
0.00100505
0.00100505
0.00100505
0.00100505
0.00100505
0.00100505
0.00100505
0.00100505
0.00100505
0.00100505
0.00100505
0.00100505
0.00100505
0.00100505
0.00100505
0.00100505
0.00100505
0.00100505
0.00100505
0.00100505
0.00100505
0.00100504
0.00100504
0.00100504
0.00100504
0.00100504
0.00100504
0.00100504
0.00100504
0.00100504
0.00100504
0.00100504
0.00100504
0.00100504
0.00100504
0.00100504
0.00100504
0.00100504
0.00100504
0.00100504
0.00100504
0.00100504
0.00100504
0.00100504
0.00100504
0.00100504
0.00100504
0.00100504
0.00100504
0.00100504
0.00100504
0.00100504
0.00100504
0.00100504
0.00100504
0.00100504
0.00100504
0.00100504
0.00100504
0.00100504
0.00100504
0.00100504
0.00100504
0.00100504
0.00100504
0.00100504
0.00100504
0.00100504
0.00100504
0.00100504
0.00100504
0.00100503
0.00100503
0.00100503
0.00100503
0.00100503
0.00100503
0.00100503
0.00100503
0.00100503
0.00100503
0.00100503
0.00100503
0.00100503
0.00100503
0.00100503
0.00100503
0.00100503
0.00100503
0.00100503
0.00100503
0.00100503
0.00100503
0.00100503
0.00100503
0.00100503
0.00100503
0.00100503
0.00100503
0.00100503
0.00100503
0.00100503
0.00100503
0.00100503
0.00100503
0.00100503
0.00100503
0.00100503
0.00100503
0.00100503
0.00100503
0.00100503
0.00100503
0.00100503
0.00100503
0.00100503
0.00100503
0.00100503
0.00100503
0.00100503
0.00100503
0.00100503
0.00100503
0.00100503
0.00100503
0.00100503
0.00100503
0.00100503
0.00100503
0.00100503
0.00100503
0.00100503
0.00100503
0.00100503
0.00100503
0.00100503
0.00100503
0.00100503
0.00100503
0.00100503
0.00100503
0.00100503
0.00100503
0.00100503
0.00100503
0.00100503
0.00100503
0.00100503
0.00100503
0.00100503
0.00100503
0.00100503
0.00100503
0.00100503
0.00100503
0.00100503
0.00100503
0.00100503
0.00100503
0.00100503
0.00100503
0.00100503
0.00100503
0.00100503
0.00100503
0.00100503
0.00100503
0.00100503
0.00100504
0.00100503
0.00100503
0.00100503
0.00100503
0.00100503
0.00100503
0.00100503
0.00100503
0.00100503
0.00100503
0.00100503
0.00100503
0.00100503
0.00100503
0.00100503
0.00100503
0.00100503
0.00100503
0.00100503
0.00100503
0.00100503
0.00100503
0.00100503
0.00100503
0.00100503
0.00100503
0.00100503
0.00100503
0.00100503
0.00100503
0.00100503
0.00100503
0.00100503
0.00100503
0.00100503
0.00100503
0.00100503
0.00100503
0.00100503
0.00100503
0.00100503
0.00100503
0.00100503
0.00100503
0.00100503
0.00100503
0.00100503
0.00100503
0.00100503
0.00100503
0.00100503
0.00100503
0.00100503
0.00100503
0.00100503
0.00100503
0.00100503
0.00100503
0.00100503
0.00100503
0.00100504
0.00100504
0.00100504
0.00100503
0.00100503
0.00100504
0.00100504
0.00100504
0.00100503
0.00100503
0.00100503
0.00100503
0.00100503
0.00100503
0.00100503
0.00100504
0.00100504
0.00100504
0.00100504
0.00100494
0.00109685
0.00108057
0.00103287
0.00100879
0.00100618
0.00100601
0.00100614
0.00100627
0.0010064
0.00100653
0.00100664
0.00100674
0.00100683
0.00100691
0.00100698
0.00100705
0.0010071
0.00100714
0.00100717
0.0010072
0.00100723
0.00100726
0.00100729
0.00100731
0.00100734
0.00100736
0.00100739
0.0010074
0.0010074
0.0010074
0.00100739
0.00100738
0.00100737
0.00100735
0.00100733
0.00100731
0.00100728
0.00100725
0.00100722
0.00100719
0.00100716
0.00100713
0.00100709
0.00100704
0.001007
0.00100695
0.0010069
0.00100685
0.00100681
0.00100676
0.00100672
0.00100667
0.00100663
0.00100659
0.00100655
0.00100651
0.00100647
0.00100644
0.0010064
0.00100636
0.00100633
0.0010063
0.00100628
0.00100626
0.00100624
0.00100623
0.00100623
0.00100623
0.00100623
0.00100623
0.00100622
0.00100619
0.00100614
0.00100603
0.00100583
0.0010055
0.00100501
0.0010043
0.00100339
0.00100246
0.00100203
0.00100343
0.00100893
0.00101102
0.00101526
0.00101782
0.00102183
0.0010356
0.00103455
0.00101661
0.00101544
0.00100387
0.00100492
0.00100025
0.00100042
0.00100136
0.00100147
0.00100096
0.00100107
0.0010008
0.00100069
0.0010008
0.00100082
0.00100086
0.00100088
0.00100092
0.001001
0.00100099
0.00100122
0.0010012
0.00100088
0.00100085
0.0010007
0.00100066
0.00100059
0.00100055
0.00100055
0.00100052
0.0010005
0.00100045
0.00100044
0.00100048
0.00100048
0.00100057
0.00100055
0.00100086
0.00100084
0.0010005
0.00100048
0.00100036
0.00100034
0.0010003
0.00100028
0.0010003
0.00100029
0.00100028
0.00100026
0.00100025
0.00100024
0.00100023
0.00100022
0.00100021
0.00100021
0.0010002
0.00100019
0.00100018
0.00100018
0.00100017
0.00100016
0.00100015
0.00100015
0.00100014
0.00100014
0.00100013
0.00100012
0.00100012
0.00100011
0.00100011
0.0010001
0.0010001
0.0010001
0.00100009
0.00100009
0.00100008
0.00100008
0.00100008
0.00100007
0.00100007
0.00100007
0.00100006
0.00100006
0.00100006
0.00100005
0.00100005
0.00100005
0.00100005
0.00100004
0.00100004
0.00100004
0.00100004
0.00100003
0.00100003
0.00100003
0.00100003
0.00100003
0.00100003
0.00100002
0.00100002
0.00100002
0.00100002
0.00100002
0.00100002
0.00100001
0.00100001
0.00100001
0.00100001
0.00100001
0.00100001
0.00100001
0.00100001
0.00100001
0.00100001
0.001
0.001
0.001
0.001
0.001
0.001
0.001
0.001
0.001
0.000999999
0.000999999
0.000999998
0.000999998
0.000999998
0.000999997
0.000999997
0.000999996
0.000999996
0.000999996
0.000999995
0.000999995
0.000999995
0.000999994
0.000999994
0.000999994
0.000999993
0.000999993
0.000999993
0.000999993
0.000999992
0.000999992
0.000999992
0.000999992
0.000999991
0.000999991
0.000999991
0.000999991
0.000999991
0.00099999
0.00099999
0.00099999
0.00099999
0.00099999
0.000999989
0.000999989
0.000999989
0.000999989
0.000999989
0.000999989
0.000999989
0.000999989
0.000999988
0.000999988
0.000999988
0.000999988
0.000999988
0.000999988
0.000999988
0.000999987
0.000999987
0.000999987
0.000999987
0.000999987
0.000999987
0.000999987
0.000999987
0.000999987
0.000999987
0.000999987
0.000999986
0.000999986
0.000999986
0.000999986
0.000999986
0.000999986
0.000999986
0.000999986
0.000999986
0.000999986
0.000999986
0.000999986
0.000999986
0.000999986
0.000999986
0.000999986
0.000999986
0.000999986
0.000999986
0.000999986
0.000999986
0.000999986
0.000999986
0.000999986
0.000999986
0.000999986
0.000999986
0.000999986
0.000999986
0.000999986
0.000999986
0.000999986
0.000999986
0.000999986
0.000999986
0.000999986
0.000999986
0.000999986
0.000999986
0.000999986
0.000999986
0.000999986
0.000999986
0.000999986
0.000999986
0.000999986
0.000999986
0.000999986
0.000999986
0.000999986
0.000999986
0.000999986
0.000999986
0.000999986
0.000999986
0.000999986
0.000999986
0.000999986
0.000999986
0.000999986
0.000999986
0.000999986
0.000999986
0.000999986
0.000999986
0.000999986
0.000999986
0.000999986
0.000999986
0.000999986
0.000999986
0.000999985
0.000999985
0.000999985
0.000999985
0.000999985
0.000999985
0.000999985
0.000999985
0.000999985
0.000999985
0.000999985
0.000999985
0.000999985
0.000999985
0.000999985
0.000999985
0.000999985
0.000999984
0.000999984
0.000999984
0.000999984
0.000999984
0.000999984
0.000999984
0.000999984
0.000999984
0.000999984
0.000999984
0.000999984
0.000999984
0.000999984
0.000999984
0.000999984
0.000999984
0.000999984
0.000999983
0.000999983
0.000999983
0.000999983
0.000999983
0.000999983
0.000999983
0.000999983
0.000999983
0.000999983
0.000999983
0.000999983
0.000999983
0.000999983
0.000999983
0.000999983
0.000999983
0.000999983
0.000999983
0.000999983
0.000999983
0.000999982
0.000999982
0.000999982
0.000999982
0.000999982
0.000999982
0.000999982
0.000999982
0.000999982
0.000999982
0.000999982
0.000999982
0.000999982
0.000999982
0.000999982
0.000999982
0.000999982
0.000999982
0.000999982
0.000999982
0.000999982
0.000999982
0.000999982
0.000999982
0.000999982
0.000999982
0.000999982
0.000999982
0.000999982
0.000999982
0.000999982
0.000999982
0.000999982
0.000999982
0.000999982
0.000999982
0.000999982
0.000999982
0.000999982
0.000999982
0.000999982
0.000999982
0.000999982
0.000999982
0.000999982
0.000999982
0.000999982
0.000999982
0.000999982
0.000999982
0.000999982
0.000999982
0.000999982
0.000999982
0.000999982
0.000999982
0.000999982
0.000999982
0.000999982
0.000999982
0.000999982
0.000999982
0.000999982
0.00099998
0.00099998
0.00099998
0.000999979
0.000999979
0.00099998
0.00099998
0.000999979
0.000999979
0.000999979
0.000999979
0.000999979
0.000999979
0.000999979
0.000999979
0.000999979
0.000999979
0.000999979
0.000999979
0.000999979
0.000999979
0.000999979
0.000999979
0.00099998
0.00099998
0.00099998
0.00099998
0.00099998
0.00099998
0.000999981
0.000999981
0.000999981
0.000999981
0.000999981
0.000999981
0.000999981
0.000999982
0.000999982
0.000999982
0.000999982
0.000999982
0.000999983
0.000999983
0.000999983
0.000999983
0.000999983
0.000999984
0.000999984
0.000999984
0.000999984
0.000999984
0.000999984
0.000999984
0.000999984
0.000999984
0.000999984
0.000999985
0.000999985
0.000999985
0.000999985
0.000999985
0.000999985
0.000999985
0.000999985
0.000999985
0.000999985
0.000999985
0.000999985
0.000999985
0.000999985
0.000999985
0.000999985
0.000999985
0.000999985
0.000999985
0.000999985
0.000999985
0.000999985
0.000999984
0.000999985
0.000999985
0.000999985
0.000999984
0.000999985
0.000999985
0.000999984
0.000999985
0.000999985
0.000999983
0.00111315
0.00108202
0.00103319
0.001009
0.00100639
0.00100622
0.00100634
0.00100646
0.00100658
0.00100668
0.00100678
0.00100687
0.00100695
0.00100703
0.0010071
0.00100716
0.00100721
0.00100725
0.00100729
0.00100732
0.00100735
0.00100737
0.0010074
0.00100742
0.00100744
0.00100746
0.00100746
0.00100747
0.00100747
0.00100746
0.00100745
0.00100744
0.00100742
0.0010074
0.00100738
0.00100735
0.00100731
0.00100728
0.00100726
0.00100723
0.00100719
0.00100716
0.00100712
0.00100708
0.00100703
0.00100698
0.00100693
0.00100688
0.00100683
0.00100679
0.00100674
0.0010067
0.00100665
0.00100661
0.00100656
0.00100651
0.00100646
0.00100641
0.00100637
0.00100632
0.00100627
0.00100623
0.00100619
0.00100615
0.00100611
0.00100607
0.00100604
0.001006
0.00100595
0.00100589
0.00100581
0.0010057
0.00100555
0.00100536
0.00100508
0.00100472
0.00100426
0.00100371
0.00100317
0.00100275
0.00100225
0.00100188
0.00100144
0.00100268
0.00100405
0.00100585
0.00101014
0.00101237
0.00101765
0.00101734
0.00103512
0.00103344
0.00101634
0.0010152
0.00100361
0.00100463
0.00100035
0.00100039
0.0010014
0.00100151
0.00100095
0.00100104
0.00100081
0.00100071
0.00100082
0.00100083
0.00100087
0.0010009
0.00100086
0.00100094
0.00100089
0.00100112
0.00100109
0.00100078
0.00100074
0.00100059
0.00100056
0.0010005
0.00100048
0.00100048
0.00100047
0.00100045
0.00100041
0.0010004
0.00100043
0.00100043
0.00100052
0.0010005
0.00100078
0.00100075
0.00100045
0.00100043
0.00100032
0.00100031
0.00100029
0.00100026
0.00100024
0.00100025
0.00100024
0.00100023
0.00100022
0.00100021
0.0010002
0.00100019
0.00100019
0.00100018
0.00100017
0.00100016
0.00100016
0.00100015
0.00100014
0.00100014
0.00100013
0.00100013
0.00100012
0.00100011
0.00100011
0.0010001
0.0010001
0.0010001
0.00100009
0.00100009
0.00100008
0.00100008
0.00100007
0.00100007
0.00100007
0.00100006
0.00100006
0.00100006
0.00100005
0.00100005
0.00100005
0.00100004
0.00100004
0.00100004
0.00100004
0.00100003
0.00100003
0.00100003
0.00100003
0.00100003
0.00100002
0.00100002
0.00100002
0.00100002
0.00100002
0.00100001
0.00100001
0.00100001
0.00100001
0.00100001
0.00100001
0.001
0.001
0.001
0.001
0.000999999
0.000999998
0.000999997
0.000999996
0.000999995
0.000999994
0.000999993
0.000999993
0.000999992
0.000999991
0.00099999
0.000999989
0.000999989
0.000999988
0.000999988
0.000999987
0.000999987
0.000999986
0.000999986
0.000999985
0.000999985
0.000999984
0.000999984
0.000999983
0.000999983
0.000999982
0.000999982
0.000999982
0.000999981
0.000999981
0.000999981
0.000999981
0.00099998
0.00099998
0.00099998
0.000999979
0.000999979
0.000999979
0.000999979
0.000999979
0.000999978
0.000999978
0.000999978
0.000999978
0.000999978
0.000999977
0.000999977
0.000999977
0.000999977
0.000999977
0.000999977
0.000999976
0.000999976
0.000999976
0.000999976
0.000999976
0.000999976
0.000999976
0.000999976
0.000999975
0.000999975
0.000999975
0.000999975
0.000999975
0.000999975
0.000999975
0.000999975
0.000999975
0.000999975
0.000999974
0.000999974
0.000999974
0.000999974
0.000999974
0.000999974
0.000999974
0.000999974
0.000999974
0.000999974
0.000999974
0.000999973
0.000999973
0.000999973
0.000999973
0.000999973
0.000999973
0.000999973
0.000999973
0.000999973
0.000999973
0.000999973
0.000999973
0.000999973
0.000999973
0.000999973
0.000999973
0.000999973
0.000999973
0.000999973
0.000999973
0.000999973
0.000999973
0.000999973
0.000999973
0.000999973
0.000999973
0.000999973
0.000999973
0.000999973
0.000999973
0.000999973
0.000999973
0.000999973
0.000999973
0.000999973
0.000999973
0.000999973
0.000999973
0.000999973
0.000999973
0.000999973
0.000999973
0.000999974
0.000999974
0.000999974
0.000999974
0.000999973
0.000999973
0.000999973
0.000999973
0.000999973
0.000999973
0.000999973
0.000999973
0.000999973
0.000999973
0.000999973
0.000999973
0.000999973
0.000999973
0.000999973
0.000999973
0.000999973
0.000999973
0.000999973
0.000999973
0.000999973
0.000999973
0.000999973
0.000999973
0.000999973
0.000999973
0.000999973
0.000999973
0.000999973
0.000999972
0.000999972
0.000999972
0.000999972
0.000999972
0.000999972
0.000999972
0.000999972
0.000999972
0.000999972
0.000999972
0.000999972
0.000999972
0.000999972
0.000999972
0.000999972
0.000999972
0.000999972
0.000999971
0.000999971
0.000999971
0.000999971
0.000999971
0.000999971
0.000999971
0.000999971
0.000999971
0.000999971
0.000999971
0.000999971
0.000999971
0.000999971
0.000999971
0.000999971
0.000999971
0.000999971
0.000999971
0.000999971
0.000999971
0.000999971
0.00099997
0.00099997
0.00099997
0.00099997
0.00099997
0.00099997
0.00099997
0.00099997
0.00099997
0.00099997
0.00099997
0.00099997
0.00099997
0.00099997
0.00099997
0.00099997
0.00099997
0.00099997
0.00099997
0.00099997
0.00099997
0.00099997
0.00099997
0.00099997
0.00099997
0.00099997
0.00099997
0.00099997
0.00099997
0.00099997
0.00099997
0.00099997
0.00099997
0.00099997
0.00099997
0.00099997
0.00099997
0.00099997
0.00099997
0.00099997
0.00099997
0.00099997
0.00099997
0.00099997
0.00099997
0.00099997
0.00099997
0.00099997
0.00099997
0.00099997
0.00099997
0.00099997
0.00099997
0.00099997
0.00099997
0.00099997
0.00099997
0.00099997
0.00099997
0.00099997
0.00099997
0.00099997
0.00099997
0.00099997
0.00099997
0.00099997
0.000999969
0.000999968
0.000999968
0.000999968
0.000999968
0.000999968
0.000999968
0.000999968
0.000999968
0.000999968
0.000999968
0.000999967
0.000999967
0.000999967
0.000999967
0.000999967
0.000999967
0.000999967
0.000999967
0.000999967
0.000999967
0.000999967
0.000999967
0.000999967
0.000999967
0.000999967
0.000999967
0.000999968
0.000999968
0.000999968
0.000999968
0.000999968
0.000999968
0.000999968
0.000999969
0.000999969
0.000999969
0.000999969
0.000999969
0.00099997
0.00099997
0.00099997
0.00099997
0.00099997
0.00099997
0.000999971
0.000999971
0.000999971
0.000999971
0.000999971
0.000999972
0.000999972
0.000999972
0.000999972
0.000999972
0.000999972
0.000999972
0.000999972
0.000999972