/*--------------------------------*- C++ -*----------------------------------*\
| =========                 |                                                 |
| \\      /  F ield         | OpenFOAM: The Open Source CFD Toolbox           |
|  \\    /   O peration     | Version:  v2006                                 |
|   \\  /    A nd           | Website:  www.openfoam.com                      |
|    \\/     M anipulation  |                                                 |
\*---------------------------------------------------------------------------*/
FoamFile
{
    version     2.0;
    format      ascii;
    class       volVectorField;
    location    "0.4";
    object      U;
}
// * * * * * * * * * * * * * * * * * * * * * * * * * * * * * * * * * * * * * //

dimensions      [0 1 -1 0 0 0 0];


internalField   nonuniform List<vector> 
33000
(
(0.00291691 0 -0.000147022)
(0.00262741 0 -8.09505e-05)
(0.00200837 0 -8.34061e-05)
(0.00196059 0 -8.86549e-05)
(0.00207345 0 -8.66598e-05)
(0.00216069 0 -8.25952e-05)
(0.00224404 0 -7.91617e-05)
(0.00232766 0 -7.7178e-05)
(0.00240932 0 -7.49448e-05)
(0.00248956 0 -7.19818e-05)
(0.0025681 0 -6.84205e-05)
(0.00264429 0 -6.50921e-05)
(0.0027182 0 -6.21013e-05)
(0.00278986 0 -5.91531e-05)
(0.00285894 0 -5.62038e-05)
(0.00292518 0 -5.34257e-05)
(0.00298859 0 -5.08171e-05)
(0.00304927 0 -4.83756e-05)
(0.00310738 0 -4.61144e-05)
(0.003163 0 -4.39296e-05)
(0.00321611 0 -4.17436e-05)
(0.00326631 0 -3.94929e-05)
(0.00331485 0 -3.70879e-05)
(0.00335974 0 -3.45882e-05)
(0.00340197 0 -3.21437e-05)
(0.00344251 0 -2.99828e-05)
(0.00348007 0 -2.80542e-05)
(0.00351487 0 -2.62623e-05)
(0.00354723 0 -2.45149e-05)
(0.00357729 0 -2.26287e-05)
(0.00360499 0 -2.06581e-05)
(0.00363028 0 -1.86025e-05)
(0.0036531 0 -1.64469e-05)
(0.0036734 0 -1.42067e-05)
(0.00369116 0 -1.18864e-05)
(0.00370632 0 -9.44504e-06)
(0.00371886 0 -6.8846e-06)
(0.00372896 0 -4.53187e-06)
(0.00373679 0 -2.07129e-06)
(0.0037424 0 3.83713e-07)
(0.00374592 0 2.80248e-06)
(0.00374745 0 5.17074e-06)
(0.00374708 0 7.49981e-06)
(0.00374489 0 9.72631e-06)
(0.00374099 0 1.17801e-05)
(0.00373549 0 1.36856e-05)
(0.00372853 0 1.53095e-05)
(0.00372023 0 1.67697e-05)
(0.00371062 0 1.80711e-05)
(0.00369974 0 1.9178e-05)
(0.00368759 0 2.01541e-05)
(0.00367413 0 2.10275e-05)
(0.00365927 0 2.18229e-05)
(0.00364291 0 2.25977e-05)
(0.0036249 0 2.34019e-05)
(0.00360509 0 2.42504e-05)
(0.00358335 0 2.51426e-05)
(0.00355961 0 2.60585e-05)
(0.0035338 0 2.70297e-05)
(0.00350582 0 2.81479e-05)
(0.00347555 0 2.9393e-05)
(0.00344288 0 3.07809e-05)
(0.00340771 0 3.23102e-05)
(0.00336992 0 3.39911e-05)
(0.00332934 0 3.59154e-05)
(0.00328571 0 3.81101e-05)
(0.00323873 0 4.06068e-05)
(0.00318798 0 4.35145e-05)
(0.00313286 0 4.70608e-05)
(0.00307241 0 5.15413e-05)
(0.00300532 0 5.72765e-05)
(0.0029297 0 6.49524e-05)
(0.00284248 0 7.60806e-05)
(0.00273853 0 9.34626e-05)
(0.00260919 0 0.00012218)
(0.00244336 0 0.000172235)
(0.00218504 0 0.000259946)
(0.00211039 0 0.000432941)
(0.00124938 0 0.000211628)
(0.00133151 0 -6.89104e-06)
(0.00109034 0 -8.85125e-05)
(0.00114651 0 -0.000150379)
(0.00113538 0 1.47387e-05)
(0.00111186 0 2.12637e-05)
(0.00115216 0 3.2777e-05)
(0.00115203 0 1.67474e-05)
(0.00112434 0 6.60247e-06)
(0.00111326 0 -4.73416e-06)
(0.00110329 0 -1.12097e-05)
(0.00109813 0 1.95835e-06)
(0.001088 0 3.39642e-06)
(0.00108474 0 5.8041e-06)
(0.00107748 0 6.83697e-06)
(0.00106794 0 6.90089e-06)
(0.0010591 0 7.29745e-06)
(0.00104844 0 8.6799e-06)
(0.00103771 0 1.00494e-05)
(0.00102278 0 1.12549e-05)
(0.00101489 0 1.53217e-05)
(0.000987161 0 1.4358e-05)
(0.000979214 0 9.7576e-06)
(0.000964415 0 5.63806e-06)
(0.000955161 0 5.08335e-06)
(0.000943794 0 8.42393e-06)
(0.000932142 0 8.94609e-06)
(0.000921238 0 9.4264e-06)
(0.000909249 0 9.64815e-06)
(0.000896606 0 9.68089e-06)
(0.000883951 0 9.64328e-06)
(0.000871192 0 9.7553e-06)
(0.00085828 0 1.00622e-05)
(0.000845061 0 1.03761e-05)
(0.00083168 0 1.07468e-05)
(0.000817605 0 1.12692e-05)
(0.00080385 0 1.23842e-05)
(0.000785306 0 1.36006e-05)
(0.000776876 0 1.83726e-05)
(0.000741008 0 1.66714e-05)
(0.000733532 0 1.06261e-05)
(0.000717734 0 5.05935e-06)
(0.000708991 0 4.05459e-06)
(0.000698682 0 7.63192e-06)
(0.000688128 0 8.00091e-06)
(0.000678766 0 8.09549e-06)
(0.000668737 0 8.09065e-06)
(0.000658345 0 7.83564e-06)
(0.000648275 0 7.74292e-06)
(0.000638166 0 7.82472e-06)
(0.000628075 0 7.80707e-06)
(0.000618101 0 7.78022e-06)
(0.000608172 0 7.74404e-06)
(0.000598314 0 7.67887e-06)
(0.000588549 0 7.63555e-06)
(0.00057885 0 7.59421e-06)
(0.000569245 0 7.52469e-06)
(0.000559768 0 7.44238e-06)
(0.000550411 0 7.37485e-06)
(0.000541147 0 7.31924e-06)
(0.000531974 0 7.25236e-06)
(0.000522917 0 7.1671e-06)
(0.000513992 0 7.07721e-06)
(0.000505188 0 7.0017e-06)
(0.000496478 0 6.93168e-06)
(0.000487874 0 6.84334e-06)
(0.000479391 0 6.76405e-06)
(0.000471007 0 6.70362e-06)
(0.000462705 0 6.63593e-06)
(0.000454504 0 6.54843e-06)
(0.000446421 0 6.46194e-06)
(0.000438441 0 6.3879e-06)
(0.00043055 0 6.31178e-06)
(0.000422759 0 6.22639e-06)
(0.000415073 0 6.14732e-06)
(0.000407478 0 6.07528e-06)
(0.000399973 0 5.99631e-06)
(0.000392572 0 5.91325e-06)
(0.000385273 0 5.83603e-06)
(0.000378071 0 5.75669e-06)
(0.000370971 0 5.67254e-06)
(0.000363972 0 5.59938e-06)
(0.000357058 0 5.53638e-06)
(0.000350228 0 5.45695e-06)
(0.000343505 0 5.35722e-06)
(0.000336898 0 5.26738e-06)
(0.000330387 0 5.20075e-06)
(0.000323959 0 5.13517e-06)
(0.000317626 0 5.05215e-06)
(0.0003114 0 4.96638e-06)
(0.000305273 0 4.89893e-06)
(0.000299221 0 4.83959e-06)
(0.00029325 0 4.76123e-06)
(0.000287383 0 4.66996e-06)
(0.000281618 0 4.59517e-06)
(0.000275934 0 4.53281e-06)
(0.000270331 0 4.45784e-06)
(0.000264827 0 4.37549e-06)
(0.00025942 0 4.30654e-06)
(0.000254091 0 4.24472e-06)
(0.000248843 0 4.17319e-06)
(0.000243688 0 4.09805e-06)
(0.000238622 0 4.03221e-06)
(0.000233634 0 3.96744e-06)
(0.000228732 0 3.89154e-06)
(0.000223928 0 3.8115e-06)
(0.00021922 0 3.74001e-06)
(0.000214596 0 3.67442e-06)
(0.000210056 0 3.60701e-06)
(0.000205604 0 3.53835e-06)
(0.00020124 0 3.47342e-06)
(0.000196956 0 3.41003e-06)
(0.000192751 0 3.34256e-06)
(0.000188632 0 3.2696e-06)
(0.000184602 0 3.19594e-06)
(0.00018066 0 3.12747e-06)
(0.000176798 0 3.06553e-06)
(0.000173012 0 3.00645e-06)
(0.000169303 0 2.94724e-06)
(0.000165668 0 2.88774e-06)
(0.000162105 0 2.82795e-06)
(0.000158612 0 2.76875e-06)
(0.00015519 0 2.71205e-06)
(0.000151834 0 2.65683e-06)
(0.000148546 0 2.60147e-06)
(0.000145324 0 2.54715e-06)
(0.000142167 0 2.4943e-06)
(0.000139076 0 2.4401e-06)
(0.000136053 0 2.3834e-06)
(0.000133099 0 2.32642e-06)
(0.000130211 0 2.26782e-06)
(0.000127391 0 2.20493e-06)
(0.000124643 0 2.14375e-06)
(0.000121959 0 2.09404e-06)
(0.000119326 0 2.05391e-06)
(0.000116738 0 2.01353e-06)
(0.0001142 0 1.97245e-06)
(0.00011171 0 1.9375e-06)
(0.000109259 0 1.9075e-06)
(0.000106848 0 1.87206e-06)
(0.000104487 0 1.82874e-06)
(0.000102179 0 1.78735e-06)
(9.99159e-05 0 1.75212e-06)
(9.76935e-05 0 1.71577e-06)
(9.55161e-05 0 1.67585e-06)
(9.3385e-05 0 1.64044e-06)
(9.12919e-05 0 1.61423e-06)
(8.92306e-05 0 1.59007e-06)
(8.72057e-05 0 1.55979e-06)
(8.5224e-05 0 1.52582e-06)
(8.32858e-05 0 1.49274e-06)
(8.1388e-05 0 1.4601e-06)
(7.95309e-05 0 1.42565e-06)
(7.77159e-05 0 1.391e-06)
(7.59418e-05 0 1.35837e-06)
(7.42071e-05 0 1.32746e-06)
(7.25119e-05 0 1.29816e-06)
(7.08552e-05 0 1.27322e-06)
(6.92328e-05 0 1.25298e-06)
(6.76418e-05 0 1.23311e-06)
(6.60845e-05 0 1.20786e-06)
(6.45663e-05 0 1.17739e-06)
(6.30893e-05 0 1.14606e-06)
(6.16505e-05 0 1.118e-06)
(6.02454e-05 0 1.09448e-06)
(5.88695e-05 0 1.0746e-06)
(5.75186e-05 0 1.0566e-06)
(5.61904e-05 0 1.03712e-06)
(5.48867e-05 0 1.01423e-06)
(5.36108e-05 0 9.91336e-07)
(5.23613e-05 0 9.73929e-07)
(5.11319e-05 0 9.62324e-07)
(4.9919e-05 0 9.48861e-07)
(4.87277e-05 0 9.26338e-07)
(4.75675e-05 0 8.98187e-07)
(4.64404e-05 0 8.752e-07)
(4.53377e-05 0 8.62778e-07)
(4.42504e-05 0 8.53193e-07)
(4.31813e-05 0 8.35316e-07)
(4.21413e-05 0 8.07423e-07)
(4.11363e-05 0 7.78508e-07)
(4.01613e-05 0 7.57983e-07)
(3.92059e-05 0 7.45996e-07)
(3.82648e-05 0 7.37488e-07)
(3.73384e-05 0 7.29095e-07)
(3.64276e-05 0 7.20307e-07)
(3.55328e-05 0 7.09716e-07)
(3.46562e-05 0 6.9608e-07)
(3.38008e-05 0 6.81128e-07)
(3.29668e-05 0 6.67528e-07)
(3.21537e-05 0 6.53574e-07)
(3.13632e-05 0 6.35013e-07)
(3.05996e-05 0 6.12419e-07)
(2.98633e-05 0 5.9206e-07)
(2.91491e-05 0 5.76597e-07)
(2.84517e-05 0 5.65112e-07)
(2.77686e-05 0 5.55183e-07)
(2.70986e-05 0 5.45973e-07)
(2.64399e-05 0 5.37323e-07)
(2.57914e-05 0 5.28911e-07)
(2.51526e-05 0 5.2169e-07)
(2.45222e-05 0 5.17497e-07)
(2.38974e-05 0 5.15738e-07)
(2.32773e-05 0 5.12209e-07)
(2.26658e-05 0 5.02925e-07)
(2.20688e-05 0 4.8845e-07)
(2.14896e-05 0 4.72949e-07)
(2.09279e-05 0 4.59097e-07)
(2.03822e-05 0 4.46213e-07)
(1.98527e-05 0 4.32417e-07)
(1.93415e-05 0 4.1736e-07)
(1.88494e-05 0 4.0207e-07)
(1.83764e-05 0 3.87394e-07)
(1.79211e-05 0 3.73548e-07)
(1.74822e-05 0 3.61307e-07)
(1.70569e-05 0 3.52475e-07)
(1.66413e-05 0 3.47964e-07)
(1.62315e-05 0 3.46656e-07)
(1.58257e-05 0 3.45623e-07)
(1.54249e-05 0 3.42453e-07)
(1.50313e-05 0 3.37116e-07)
(1.46459e-05 0 3.31389e-07)
(1.42683e-05 0 3.26574e-07)
(1.38977e-05 0 3.22147e-07)
(1.35348e-05 0 3.15887e-07)
(1.31825e-05 0 3.06067e-07)
(1.28443e-05 0 2.92576e-07)
(1.25228e-05 0 2.7707e-07)
(1.22186e-05 0 2.617e-07)
(1.19302e-05 0 2.48208e-07)
(1.16549e-05 0 2.37619e-07)
(1.1389e-05 0 2.30478e-07)
(1.1129e-05 0 2.27207e-07)
(1.08711e-05 0 2.26994e-07)
(1.06127e-05 0 2.29564e-07)
(1.03518e-05 0 2.33306e-07)
(1.00885e-05 0 2.36441e-07)
(9.82407e-06 0 2.37394e-07)
(9.56144e-06 0 2.35243e-07)
(9.30422e-06 0 2.29753e-07)
(9.05619e-06 0 2.21401e-07)
(8.82028e-06 0 2.11271e-07)
(8.59795e-06 0 1.99806e-07)
(8.38972e-06 0 1.86686e-07)
(8.19617e-06 0 1.71315e-07)
(8.01801e-06 0 1.5502e-07)
(7.85476e-06 0 1.4139e-07)
(7.70231e-06 0 1.35239e-07)
(7.55231e-06 0 1.38939e-07)
(7.39597e-06 0 1.48174e-07)
(7.23001e-06 0 1.56235e-07)
(7.05823e-06 0 1.58878e-07)
(6.88673e-06 0 1.58352e-07)
(6.71874e-06 0 1.57102e-07)
(6.55519e-06 0 1.53327e-07)
(6.40006e-06 0 1.41699e-07)
(6.26177e-06 0 1.21308e-07)
(6.14701e-06 0 9.87289e-08)
(6.05332e-06 0 8.30726e-08)
(5.97013e-06 0 7.69236e-08)
(5.88892e-06 0 7.47913e-08)
(5.80792e-06 0 7.34195e-08)
(5.72662e-06 0 7.61304e-08)
(5.64027e-06 0 8.60407e-08)
(5.54229e-06 0 9.98517e-08)
(5.43201e-06 0 1.09865e-07)
(5.31566e-06 0 1.1289e-07)
(5.19979e-06 0 1.11566e-07)
(5.08696e-06 0 1.08135e-07)
(4.97923e-06 0 1.01172e-07)
(4.88042e-06 0 9.03774e-08)
(4.7924e-06 0 7.97261e-08)
(4.71193e-06 0 7.32846e-08)
(4.63387e-06 0 7.15745e-08)
(4.55434e-06 0 7.41513e-08)
(4.46923e-06 0 8.16641e-08)
(4.37346e-06 0 9.26579e-08)
(4.26569e-06 0 1.02303e-07)
(4.15053e-06 0 1.06505e-07)
(4.03503e-06 0 1.05854e-07)
(3.92333e-06 0 1.01936e-07)
(3.81761e-06 0 9.44061e-08)
(3.72079e-06 0 8.28601e-08)
(3.63454e-06 0 7.12766e-08)
(3.55603e-06 0 6.53201e-08)
(3.47771e-06 0 6.76924e-08)
(3.39231e-06 0 7.57408e-08)
(3.29649e-06 0 8.53724e-08)
(3.19088e-06 0 9.40061e-08)
(3.0777e-06 0 1.00597e-07)
(2.96045e-06 0 1.03274e-07)
(2.84437e-06 0 9.99457e-08)
(2.73576e-06 0 9.0618e-08)
(2.63881e-06 0 7.89711e-08)
(2.553e-06 0 6.97228e-08)
(2.47399e-06 0 6.51419e-08)
(2.39711e-06 0 6.40291e-08)
(2.32032e-06 0 6.40901e-08)
(2.24375e-06 0 6.4844e-08)
(2.16717e-06 0 6.6709e-08)
(2.09016e-06 0 6.74527e-08)
(2.01596e-06 0 6.25356e-08)
(1.95162e-06 0 5.03278e-08)
(1.90259e-06 0 3.47459e-08)
(1.86741e-06 0 2.2167e-08)
(1.83925e-06 0 1.70073e-08)
(1.81009e-06 0 2.05161e-08)
(1.77343e-06 0 3.0101e-08)
(1.7267e-06 0 4.0537e-08)
(1.67288e-06 0 4.66536e-08)
(1.61858e-06 0 4.63245e-08)
(1.5699e-06 0 4.02197e-08)
(1.53058e-06 0 3.06935e-08)
(1.50068e-06 0 2.20157e-08)
(1.47554e-06 0 1.87801e-08)
(1.44757e-06 0 2.27891e-08)
(1.41045e-06 0 3.2242e-08)
(1.36112e-06 0 4.45815e-08)
(1.29986e-06 0 5.56143e-08)
(1.23193e-06 0 5.9483e-08)
(1.1671e-06 0 5.23863e-08)
(1.11499e-06 0 3.77248e-08)
(1.07839e-06 0 2.40345e-08)
(1.05112e-06 0 1.77195e-08)
(1.02463e-06 0 1.77635e-08)
(9.96058e-07 0 2.02668e-08)
(9.65907e-07 0 2.4671e-08)
(9.33112e-07 0 2.80582e-08)
(9.01472e-07 0 2.34991e-08)
(8.78725e-07 0 1.29522e-08)
(8.65247e-07 0 5.91331e-09)
(8.53729e-07 0 6.88885e-09)
(8.3721e-07 0 1.35795e-08)
(8.12954e-07 0 2.1124e-08)
(7.84639e-07 0 2.34582e-08)
(7.60091e-07 0 1.97013e-08)
(7.42549e-07 0 1.44267e-08)
(7.29427e-07 0 1.02016e-08)
(7.19418e-07 0 7.34892e-09)
(7.09513e-07 0 9.80923e-09)
(6.95512e-07 0 1.29204e-08)
(6.78169e-07 0 1.18794e-08)
(6.64979e-07 0 8.92411e-09)
(6.49807e-07 0 1.84739e-08)
(6.18444e-07 0 3.26795e-08)
(5.77558e-07 0 3.85748e-08)
(5.29775e-07 0 4.44075e-08)
(4.80991e-07 0 3.88856e-08)
(4.4466e-07 0 3.05217e-08)
(4.14254e-07 0 2.8569e-08)
(3.85789e-07 0 2.70325e-08)
(3.51185e-07 0 3.048e-08)
(3.22163e-07 0 2.54642e-08)
(2.97527e-07 0 1.46819e-08)
(2.95388e-07 0 -5.49869e-09)
(3.07479e-07 0 -1.29423e-08)
(3.2006e-07 0 -8.02403e-09)
(3.21293e-07 0 6.74644e-09)
(3.02037e-07 0 1.85765e-08)
(2.88895e-07 0 9.88634e-09)
(2.71511e-07 0 1.54123e-08)
(2.69503e-07 0 -1.37174e-08)
(2.84571e-07 0 4.23274e-09)
(2.52452e-07 0 3.51414e-08)
(2.05345e-07 0 3.46686e-08)
(1.61838e-07 0 3.2104e-08)
(1.38046e-07 0 1.45172e-08)
(1.20681e-07 0 2.6236e-08)
(8.55282e-08 0 2.47475e-08)
(7.09183e-08 0 4.68114e-09)
(7.17954e-08 0 -7.1602e-09)
(1.12091e-07 0 -5.04829e-08)
(1.29513e-07 0 -1.14976e-08)
(1.47558e-07 0 -3.17135e-08)
(1.66815e-07 0 6.76926e-09)
(1.56172e-07 0 7.69424e-09)
(1.31804e-07 0 4.61279e-08)
(8.6301e-08 0 2.18428e-08)
(1.25823e-07 0 -4.42287e-08)
(1.40369e-07 0 2.5767e-08)
(1.24354e-07 0 -4.57964e-08)
(2.05923e-07 0 -9.36587e-08)
(2.42375e-07 0 3.40477e-09)
(2.3309e-07 0 -2.08142e-08)
(2.31512e-07 0 -5.66796e-09)
(2.58369e-07 0 -1.99276e-08)
(2.43821e-07 0 4.40132e-08)
(2.44638e-07 0 -4.88303e-08)
(3.39006e-07 0 -4.34521e-08)
(3.27434e-07 0 -3.96776e-09)
(3.28073e-07 0 -1.00291e-07)
(6.68696e-07 0 -6.39987e-08)
(5.43457e-07 0 5.65729e-08)
(5.05875e-07 0 8.23368e-09)
(4.8205e-07 0 4.05455e-08)
(4.19894e-07 0 3.71505e-08)
(3.61586e-07 0 2.50793e-08)
(2.96039e-07 0 3.15635e-08)
(2.01959e-07 0 6.35595e-08)
(8.71914e-08 0 9.13354e-08)
(-3.74953e-08 0 1.00794e-07)
(-1.70148e-07 0 1.0144e-07)
(-3.01998e-07 0 9.02423e-08)
(-4.13301e-07 0 6.09158e-08)
(-4.91204e-07 0 2.85146e-08)
(-5.4583e-07 0 1.52351e-08)
(-5.99106e-07 0 2.16735e-08)
(-6.60327e-07 0 3.14515e-08)
(-7.19148e-07 0 2.96048e-08)
(-7.5821e-07 0 1.6383e-08)
(-7.74074e-07 0 3.67548e-10)
(-7.76855e-07 0 -8.17582e-09)
(-7.78516e-07 0 -5.85213e-09)
(-7.93289e-07 0 6.98198e-09)
(-8.32892e-07 0 2.73637e-08)
(-8.987e-07 0 5.16565e-08)
(-9.86247e-07 0 7.25486e-08)
(-1.0909e-06 0 8.66535e-08)
(-1.20546e-06 0 9.41757e-08)
(-1.32145e-06 0 9.48274e-08)
(-1.42787e-06 0 8.63384e-08)
(-1.51306e-06 0 6.70739e-08)
(-1.56231e-06 0 3.28944e-08)
(-1.54778e-06 0 -1.1655e-08)
(-1.48858e-06 0 -6.83918e-08)
(-1.38251e-06 0 -1.15992e-07)
(-1.21769e-06 0 -1.52518e-07)
(-1.02604e-06 0 -1.74076e-07)
(-8.1668e-07 0 -1.80065e-07)
(-6.02577e-07 0 -1.74603e-07)
(-3.96024e-07 0 -1.61185e-07)
(-2.06344e-07 0 -1.42197e-07)
(-4.12361e-08 0 -1.14724e-07)
(9.08854e-08 0 -8.03733e-08)
(1.78026e-07 0 -3.85853e-08)
(2.11153e-07 0 7.14237e-09)
(2.00551e-07 0 4.94358e-08)
(1.66206e-07 0 7.3785e-08)
(1.25577e-07 0 7.31412e-08)
(9.54418e-08 0 5.17232e-08)
(8.90947e-08 0 8.02883e-09)
(1.27192e-07 0 -4.38881e-08)
(2.21654e-07 0 -9.47011e-08)
(3.61458e-07 0 -1.26068e-07)
(5.06361e-07 0 -1.1584e-07)
(6.17335e-07 0 -5.1909e-08)
(6.43952e-07 0 2.63557e-08)
(6.12598e-07 0 7.36531e-08)
(6.0115e-07 0 2.32172e-08)
(6.69875e-07 0 -9.07284e-08)
(8.10904e-07 0 -1.56478e-07)
(9.13997e-07 0 -8.42185e-08)
(8.77803e-07 0 1.24685e-07)
(6.60099e-07 0 2.86027e-07)
(4.17491e-07 0 2.64732e-07)
(3.12915e-07 0 7.76974e-08)
(3.26022e-07 0 -2.6229e-08)
(2.93198e-07 0 1.00816e-07)
(8.46337e-08 0 2.89815e-07)
(-1.62661e-07 0 2.45828e-07)
(-2.06493e-07 0 -3.74243e-08)
(-5.30776e-08 0 -1.82241e-07)
(3.91054e-08 0 -4.94841e-08)
(3.93477e-09 0 3.72331e-08)
(9.87494e-08 0 -2.05179e-07)
(4.35317e-07 0 -3.88381e-07)
(6.70189e-07 0 -1.37103e-07)
(6.0277e-07 0 1.15338e-07)
(5.20189e-07 0 4.96183e-08)
(3.98721e-07 0 2.50957e-07)
(6.53878e-08 0 2.87018e-07)
(-6.68459e-08 0 9.99123e-09)
(0.00289226 0 -0.000351292)
(0.002593 0 -0.000184775)
(0.00200752 0 -0.000192813)
(0.0019743 0 -0.000205417)
(0.00208929 0 -0.000207216)
(0.00217551 0 -0.000204782)
(0.00225684 0 -0.000202146)
(0.00233923 0 -0.00020006)
(0.00242129 0 -0.000196737)
(0.00250162 0 -0.000191854)
(0.00257961 0 -0.000185715)
(0.00265552 0 -0.000179675)
(0.00272939 0 -0.000173771)
(0.00280094 0 -0.000167488)
(0.00286987 0 -0.000160821)
(0.00293617 0 -0.000154371)
(0.00299995 0 -0.00014802)
(0.00306125 0 -0.000141808)
(0.00312001 0 -0.000135785)
(0.00317622 0 -0.000129849)
(0.0032298 0 -0.000123738)
(0.00328069 0 -0.000117431)
(0.003329 0 -0.000110942)
(0.00337488 0 -0.00010438)
(0.00341808 0 -9.81057e-05)
(0.00345831 0 -9.20503e-05)
(0.00349565 0 -8.63611e-05)
(0.00353035 0 -8.03121e-05)
(0.00356304 0 -7.37588e-05)
(0.00359371 0 -6.71046e-05)
(0.00362189 0 -6.04764e-05)
(0.00364756 0 -5.36847e-05)
(0.0036707 0 -4.66927e-05)
(0.00369135 0 -3.95089e-05)
(0.00370948 0 -3.20711e-05)
(0.00372512 0 -2.4399e-05)
(0.00373851 0 -1.67248e-05)
(0.00374964 0 -9.09411e-06)
(0.00375845 0 -1.36507e-06)
(0.00376512 0 6.31916e-06)
(0.00376973 0 1.39434e-05)
(0.00377226 0 2.14743e-05)
(0.00377271 0 2.88529e-05)
(0.00377111 0 3.59095e-05)
(0.00376751 0 4.24518e-05)
(0.00376201 0 4.84164e-05)
(0.00375477 0 5.35044e-05)
(0.00374594 0 5.79551e-05)
(0.00373561 0 6.17787e-05)
(0.0037239 0 6.49313e-05)
(0.00371084 0 6.75722e-05)
(0.00369644 0 6.98182e-05)
(0.00368065 0 7.17991e-05)
(0.00366338 0 7.36788e-05)
(0.00364453 0 7.55907e-05)
(0.00362398 0 7.76069e-05)
(0.00360162 0 7.97727e-05)
(0.00357734 0 8.20975e-05)
(0.00355097 0 8.4697e-05)
(0.00352236 0 8.77865e-05)
(0.00349143 0 9.12334e-05)
(0.00345811 0 9.51048e-05)
(0.00342235 0 9.93801e-05)
(0.00338405 0 0.000104163)
(0.00334309 0 0.000109551)
(0.00329937 0 0.000115659)
(0.00325275 0 0.000122578)
(0.00320299 0 0.000130623)
(0.00314971 0 0.00014033)
(0.0030925 0 0.000152298)
(0.00303093 0 0.000167164)
(0.00296456 0 0.000186161)
(0.00289326 0 0.000211709)
(0.00281763 0 0.000247837)
(0.00273987 0 0.000301051)
(0.0026661 0 0.000382629)
(0.00260806 0 0.000508886)
(0.00259898 0 0.000726377)
(0.00257037 0 0.000880523)
(0.0023414 0 0.000384934)
(0.00227609 0 0.000339562)
(0.00134338 0 0.000106253)
(0.00141451 0 3.13832e-05)
(0.00114372 0 -5.65214e-05)
(0.00114884 0 -0.00011824)
(0.00111516 0 4.65906e-05)
(0.00109198 0 3.95765e-05)
(0.0010868 0 5.59938e-05)
(0.00111453 0 3.62529e-05)
(0.00112181 0 3.09299e-05)
(0.00109562 0 1.69003e-05)
(0.00109115 0 1.02788e-05)
(0.00108049 0 2.22616e-05)
(0.00107027 0 2.28429e-05)
(0.00106376 0 2.4718e-05)
(0.00105463 0 2.68005e-05)
(0.00104358 0 2.82601e-05)
(0.00103312 0 2.99303e-05)
(0.0010225 0 3.55178e-05)
(0.0010134 0 3.63285e-05)
(0.000998802 0 3.24189e-05)
(0.000989255 0 3.18709e-05)
(0.000960352 0 2.94864e-05)
(0.000950519 0 2.8433e-05)
(0.000934298 0 2.49034e-05)
(0.000922531 0 2.49413e-05)
(0.0009099 0 2.84794e-05)
(0.000896908 0 2.91574e-05)
(0.00088433 0 2.97512e-05)
(0.000872264 0 2.98529e-05)
(0.000859636 0 3.02966e-05)
(0.000846578 0 3.05716e-05)
(0.000833757 0 3.11528e-05)
(0.000820774 0 3.21697e-05)
(0.000808007 0 3.38408e-05)
(0.000795224 0 3.56877e-05)
(0.00078366 0 4.13402e-05)
(0.000774224 0 4.14138e-05)
(0.000758306 0 3.559e-05)
(0.000749428 0 3.36538e-05)
(0.000713785 0 2.92389e-05)
(0.000705356 0 2.67952e-05)
(0.000689396 0 2.16012e-05)
(0.000679393 0 2.06969e-05)
(0.000668815 0 2.405e-05)
(0.000658323 0 2.40685e-05)
(0.000648832 0 2.39356e-05)
(0.000638836 0 2.39723e-05)
(0.000628531 0 2.36558e-05)
(0.000618522 0 2.3479e-05)
(0.000608542 0 2.34613e-05)
(0.000598618 0 2.33082e-05)
(0.000588823 0 2.31789e-05)
(0.000579098 0 2.30415e-05)
(0.000569461 0 2.28186e-05)
(0.00055995 0 2.25639e-05)
(0.000550562 0 2.23553e-05)
(0.000541281 0 2.21851e-05)
(0.000532108 0 2.19772e-05)
(0.000523053 0 2.17173e-05)
(0.00051412 0 2.14443e-05)
(0.000505301 0 2.12172e-05)
(0.000496582 0 2.1012e-05)
(0.000487963 0 2.07607e-05)
(0.000479454 0 2.05049e-05)
(0.000471061 0 2.02899e-05)
(0.000462768 0 2.00791e-05)
(0.000454572 0 1.98203e-05)
(0.000446484 0 1.95489e-05)
(0.0004385 0 1.93128e-05)
(0.000430604 0 1.9083e-05)
(0.000422801 0 1.88279e-05)
(0.000415101 0 1.85794e-05)
(0.000407498 0 1.83511e-05)
(0.000399986 0 1.81073e-05)
(0.000392577 0 1.78412e-05)
(0.000385281 0 1.75829e-05)
(0.000378091 0 1.73331e-05)
(0.000370996 0 1.70777e-05)
(0.000363996 0 1.68347e-05)
(0.000357093 0 1.6614e-05)
(0.00035028 0 1.63795e-05)
(0.000343552 0 1.6114e-05)
(0.000336913 0 1.58526e-05)
(0.000330374 0 1.5619e-05)
(0.000323941 0 1.53872e-05)
(0.000317611 0 1.5131e-05)
(0.000311379 0 1.48711e-05)
(0.000305242 0 1.46446e-05)
(0.000299193 0 1.44413e-05)
(0.000293227 0 1.42111e-05)
(0.000287348 0 1.39556e-05)
(0.000281558 0 1.37263e-05)
(0.000275858 0 1.35199e-05)
(0.000270248 0 1.32911e-05)
(0.000264735 0 1.30463e-05)
(0.000259319 0 1.28254e-05)
(0.000253991 0 1.26218e-05)
(0.00024875 0 1.24039e-05)
(0.000243597 0 1.21794e-05)
(0.000238533 0 1.1973e-05)
(0.000233554 0 1.17716e-05)
(0.00022866 0 1.15489e-05)
(0.000223856 0 1.13156e-05)
(0.000219146 0 1.10988e-05)
(0.000214525 0 1.08958e-05)
(0.00020999 0 1.06858e-05)
(0.000205545 0 1.04692e-05)
(0.000201191 0 1.02631e-05)
(0.000196918 0 1.00698e-05)
(0.000192719 0 9.87315e-06)
(0.000188595 0 9.6638e-06)
(0.000184553 0 9.45056e-06)
(0.000180594 0 9.24699e-06)
(0.000176717 0 9.05353e-06)
(0.000172924 0 8.86037e-06)
(0.000169216 0 8.66815e-06)
(0.000165585 0 8.4853e-06)
(0.000162022 0 8.30984e-06)
(0.000158523 0 8.13522e-06)
(0.000155092 0 7.9628e-06)
(0.000151729 0 7.79396e-06)
(0.000148435 0 7.62532e-06)
(0.00014521 0 7.45676e-06)
(0.000142058 0 7.28965e-06)
(0.000138978 0 7.12002e-06)
(0.000135968 0 6.94701e-06)
(0.000133026 0 6.77777e-06)
(0.000130145 0 6.61236e-06)
(0.000127321 0 6.44361e-06)
(0.000124553 0 6.27876e-06)
(0.00012184 0 6.13627e-06)
(0.000119179 0 6.01489e-06)
(0.00011657 0 5.89449e-06)
(0.000114013 0 5.77003e-06)
(0.00011151 0 5.65478e-06)
(0.00010906 0 5.5489e-06)
(0.00010666 0 5.43456e-06)
(0.000104308 0 5.30753e-06)
(0.000102004 0 5.18701e-06)
(9.97422e-05 0 5.08243e-06)
(9.75183e-05 0 4.98027e-06)
(9.53335e-05 0 4.87283e-06)
(9.31912e-05 0 4.77202e-06)
(9.1093e-05 0 4.68578e-06)
(8.9039e-05 0 4.60084e-06)
(8.70306e-05 0 4.50339e-06)
(8.50685e-05 0 4.39987e-06)
(8.315e-05 0 4.30257e-06)
(8.12703e-05 0 4.21117e-06)
(7.94259e-05 0 4.12e-06)
(7.76156e-05 0 4.03005e-06)
(7.58389e-05 0 3.94416e-06)
(7.40968e-05 0 3.85946e-06)
(7.2393e-05 0 3.77407e-06)
(7.07314e-05 0 3.69247e-06)
(6.91133e-05 0 3.61785e-06)
(6.7537e-05 0 3.54426e-06)
(6.59996e-05 0 3.46401e-06)
(6.44976e-05 0 3.37781e-06)
(6.30272e-05 0 3.29331e-06)
(6.15858e-05 0 3.21543e-06)
(6.01734e-05 0 3.1449e-06)
(5.879e-05 0 3.08167e-06)
(5.74326e-05 0 3.02552e-06)
(5.60968e-05 0 2.97087e-06)
(5.4781e-05 0 2.91012e-06)
(5.34889e-05 0 2.84421e-06)
(5.22269e-05 0 2.783e-06)
(5.0997e-05 0 2.73161e-06)
(4.97959e-05 0 2.68101e-06)
(4.86195e-05 0 2.61779e-06)
(4.74678e-05 0 2.54312e-06)
(4.63439e-05 0 2.47445e-06)
(4.52485e-05 0 2.42439e-06)
(4.41782e-05 0 2.38322e-06)
(4.31276e-05 0 2.33106e-06)
(4.20945e-05 0 2.26354e-06)
(4.10829e-05 0 2.19731e-06)
(4.00936e-05 0 2.1482e-06)
(3.91239e-05 0 2.11577e-06)
(3.81741e-05 0 2.08748e-06)
(3.7246e-05 0 2.05664e-06)
(3.6341e-05 0 2.02508e-06)
(3.54571e-05 0 1.99291e-06)
(3.45926e-05 0 1.95615e-06)
(3.37485e-05 0 1.91476e-06)
(3.29266e-05 0 1.87284e-06)
(3.21261e-05 0 1.82951e-06)
(3.13456e-05 0 1.77925e-06)
(3.05842e-05 0 1.72369e-06)
(2.98411e-05 0 1.67356e-06)
(2.91145e-05 0 1.6335e-06)
(2.84031e-05 0 1.60027e-06)
(2.77072e-05 0 1.56947e-06)
(2.70261e-05 0 1.54161e-06)
(2.63575e-05 0 1.51768e-06)
(2.56999e-05 0 1.49557e-06)
(2.5054e-05 0 1.47421e-06)
(2.44218e-05 0 1.45596e-06)
(2.38035e-05 0 1.44121e-06)
(2.3198e-05 0 1.42404e-06)
(2.26046e-05 0 1.39748e-06)
(2.20243e-05 0 1.36155e-06)
(2.14583e-05 0 1.32296e-06)
(2.09069e-05 0 1.28669e-06)
(2.03698e-05 0 1.25179e-06)
(1.98471e-05 0 1.21464e-06)
(1.93401e-05 0 1.17425e-06)
(1.88492e-05 0 1.13312e-06)
(1.83737e-05 0 1.09412e-06)
(1.7912e-05 0 1.05874e-06)
(1.74627e-05 0 1.0282e-06)
(1.70252e-05 0 1.00455e-06)
(1.65994e-05 0 9.88404e-07)
(1.61848e-05 0 9.77486e-07)
(1.57804e-05 0 9.67005e-07)
(1.53854e-05 0 9.5332e-07)
(1.49995e-05 0 9.36298e-07)
(1.46228e-05 0 9.18365e-07)
(1.42556e-05 0 9.01111e-07)
(1.38984e-05 0 8.83146e-07)
(1.35515e-05 0 8.61058e-07)
(1.32149e-05 0 8.32335e-07)
(1.28888e-05 0 7.9749e-07)
(1.2573e-05 0 7.59836e-07)
(1.22669e-05 0 7.23452e-07)
(1.19697e-05 0 6.91859e-07)
(1.16799e-05 0 6.6704e-07)
(1.13963e-05 0 6.499e-07)
(1.1118e-05 0 6.40524e-07)
(1.08442e-05 0 6.37375e-07)
(1.05748e-05 0 6.38855e-07)
(1.03101e-05 0 6.42085e-07)
(1.00504e-05 0 6.4378e-07)
(9.79636e-06 0 6.40936e-07)
(9.54882e-06 0 6.31027e-07)
(9.30914e-06 0 6.12588e-07)
(9.07924e-06 0 5.86182e-07)
(8.86079e-06 0 5.54512e-07)
(8.65429e-06 0 5.21395e-07)
(8.45792e-06 0 4.88895e-07)
(8.26802e-06 0 4.57248e-07)
(8.08133e-06 0 4.26057e-07)
(7.89701e-06 0 3.98618e-07)
(7.71683e-06 0 3.82051e-07)
(7.54214e-06 0 3.82959e-07)
(7.37189e-06 0 3.97548e-07)
(7.20275e-06 0 4.13275e-07)
(7.03388e-06 0 4.17932e-07)
(6.86886e-06 0 4.10408e-07)
(6.71251e-06 0 3.96841e-07)
(6.56601e-06 0 3.79261e-07)
(6.42668e-06 0 3.50763e-07)
(6.29348e-06 0 3.06641e-07)
(6.16901e-06 0 2.56686e-07)
(6.05505e-06 0 2.20189e-07)
(5.94823e-06 0 2.06411e-07)
(5.84193e-06 0 2.05624e-07)
(5.73338e-06 0 2.06876e-07)
(5.62505e-06 0 2.12063e-07)
(5.5192e-06 0 2.28507e-07)
(5.41467e-06 0 2.53191e-07)
(5.30926e-06 0 2.72243e-07)
(5.20369e-06 0 2.7717e-07)
(5.10024e-06 0 2.72021e-07)
(4.99944e-06 0 2.62441e-07)
(4.90043e-06 0 2.47108e-07)
(4.8033e-06 0 2.25853e-07)
(4.70815e-06 0 2.06641e-07)
(4.61338e-06 0 1.97171e-07)
(4.51729e-06 0 1.97317e-07)
(4.41984e-06 0 2.0532e-07)
(4.32109e-06 0 2.22853e-07)
(4.21974e-06 0 2.47347e-07)
(4.11575e-06 0 2.67526e-07)
(4.01239e-06 0 2.73277e-07)
(3.91405e-06 0 2.65818e-07)
(3.82225e-06 0 2.5192e-07)
(3.73466e-06 0 2.34643e-07)
(3.64826e-06 0 2.14081e-07)
(3.56153e-06 0 1.95381e-07)
(3.47382e-06 0 1.87578e-07)
(3.3837e-06 0 1.95451e-07)
(3.28987e-06 0 2.14363e-07)
(3.19259e-06 0 2.35647e-07)
(3.0937e-06 0 2.52982e-07)
(2.99543e-06 0 2.63375e-07)
(2.89929e-06 0 2.64048e-07)
(2.80622e-06 0 2.52809e-07)
(2.71687e-06 0 2.31295e-07)
(2.63169e-06 0 2.06699e-07)
(2.55041e-06 0 1.87772e-07)
(2.47141e-06 0 1.78833e-07)
(2.39262e-06 0 1.77151e-07)
(2.31394e-06 0 1.76812e-07)
(2.23801e-06 0 1.75321e-07)
(2.16777e-06 0 1.73727e-07)
(2.10347e-06 0 1.6924e-07)
(2.04405e-06 0 1.54105e-07)
(1.98931e-06 0 1.26251e-07)
(1.93881e-06 0 9.56253e-08)
(1.88976e-06 0 7.56451e-08)
(1.83901e-06 0 7.24522e-08)
(1.78542e-06 0 8.38583e-08)
(1.7307e-06 0 1.02697e-07)
(1.67771e-06 0 1.18705e-07)
(1.62937e-06 0 1.23081e-07)
(1.58805e-06 0 1.14002e-07)
(1.55312e-06 0 9.60025e-08)
(1.52149e-06 0 7.6122e-08)
(1.48879e-06 0 6.30492e-08)
(1.45129e-06 0 6.43541e-08)
(1.40762e-06 0 8.00597e-08)
(1.35928e-06 0 1.03945e-07)
(1.30922e-06 0 1.28029e-07)
(1.2611e-06 0 1.44029e-07)
(1.2177e-06 0 1.43919e-07)
(1.17889e-06 0 1.25339e-07)
(1.14244e-06 0 9.58436e-08)
(1.10612e-06 0 7.14187e-08)
(1.06796e-06 0 6.33858e-08)
(1.02755e-06 0 6.68338e-08)
(9.89257e-07 0 6.90827e-08)
(9.58724e-07 0 6.9288e-08)
(9.35228e-07 0 6.79757e-08)
(9.13904e-07 0 5.65997e-08)
(8.90776e-07 0 3.91188e-08)
(8.63722e-07 0 2.98567e-08)
(8.34965e-07 0 3.38821e-08)
(8.07514e-07 0 4.62644e-08)
(7.82931e-07 0 5.63071e-08)
(7.62884e-07 0 5.29031e-08)
(7.48717e-07 0 3.83355e-08)
(7.38016e-07 0 2.59398e-08)
(7.25629e-07 0 2.07324e-08)
(7.09051e-07 0 1.76413e-08)
(6.90177e-07 0 2.23751e-08)
(6.69921e-07 0 2.96079e-08)
(6.47069e-07 0 3.20462e-08)
(6.26083e-07 0 2.69583e-08)
(6.06719e-07 0 4.59759e-08)
(5.84926e-07 0 7.41868e-08)
(5.59233e-07 0 8.94267e-08)
(5.25116e-07 0 1.00723e-07)
(4.92311e-07 0 8.43307e-08)
(4.63128e-07 0 6.16199e-08)
(4.52038e-07 0 5.65525e-08)
(4.3407e-07 0 5.66153e-08)
(4.12669e-07 0 6.81756e-08)
(3.87528e-07 0 4.89169e-08)
(3.68089e-07 0 2.242e-08)
(3.6095e-07 0 -2.19158e-08)
(3.53415e-07 0 -2.85435e-08)
(3.48623e-07 0 -2.20178e-08)
(3.40401e-07 0 1.27319e-08)
(3.27955e-07 0 3.32997e-08)
(3.16016e-07 0 1.49908e-08)
(2.99815e-07 0 2.3799e-08)
(2.92281e-07 0 -2.93749e-08)
(2.85234e-07 0 1.31068e-08)
(2.56061e-07 0 9.24801e-08)
(2.23214e-07 0 8.41962e-08)
(1.95323e-07 0 7.80048e-08)
(1.79898e-07 0 2.24431e-08)
(1.75054e-07 0 4.87098e-08)
(1.63517e-07 0 4.8462e-08)
(1.52685e-07 0 -1.23939e-08)
(1.62182e-07 0 -3.41956e-08)
(1.6404e-07 0 -9.07782e-08)
(1.33308e-07 0 5.34383e-09)
(1.25341e-07 0 -8.26671e-08)
(1.59441e-07 0 6.28927e-09)
(1.53895e-07 0 2.55764e-08)
(1.42799e-07 0 4.77173e-08)
(1.85119e-07 0 9.70896e-09)
(1.89576e-07 0 -1.05765e-07)
(2.09688e-07 0 1.5148e-08)
(2.27559e-07 0 -7.8959e-08)
(1.93472e-07 0 -1.20833e-07)
(2.29156e-07 0 -2.80378e-08)
(2.66267e-07 0 -4.79627e-09)
(2.01132e-07 0 5.77383e-08)
(2.34201e-07 0 -8.01669e-08)
(2.84946e-07 0 3.51976e-08)
(2.99675e-07 0 -1.29307e-07)
(6.02372e-07 0 -1.6241e-07)
(6.32506e-07 0 -6.65267e-08)
(6.37127e-07 0 -3.63054e-07)
(5.95707e-07 0 2.24239e-08)
(5.51465e-07 0 6.06482e-08)
(5.7598e-07 0 -1.65682e-08)
(5.68019e-07 0 1.2151e-07)
(5.21679e-07 0 1.33356e-07)
(4.49211e-07 0 1.32974e-07)
(3.42997e-07 0 1.90181e-07)
(2.23662e-07 0 2.32611e-07)
(1.29492e-07 0 2.37711e-07)
(5.83586e-08 0 2.51386e-07)
(-1.64359e-08 0 2.74156e-07)
(-9.72032e-08 0 2.58891e-07)
(-1.74602e-07 0 1.97227e-07)
(-2.52936e-07 0 1.38918e-07)
(-3.39652e-07 0 1.24615e-07)
(-4.30709e-07 0 1.39586e-07)
(-5.12285e-07 0 1.42239e-07)
(-5.72203e-07 0 1.12062e-07)
(-6.06061e-07 0 6.25944e-08)
(-6.19097e-07 0 1.84507e-08)
(-6.25245e-07 0 1.70893e-09)
(-6.38313e-07 0 1.90565e-08)
(-6.68064e-07 0 6.36399e-08)
(-7.18697e-07 0 1.23582e-07)
(-7.89572e-07 0 1.82674e-07)
(-8.73315e-07 0 2.25903e-07)
(-9.56107e-07 0 2.48282e-07)
(-1.02783e-06 0 2.50193e-07)
(-1.0828e-06 0 2.32397e-07)