/*--------------------------------*- C++ -*----------------------------------*\
| =========                 |                                                 |
| \\      /  F ield         | OpenFOAM: The Open Source CFD Toolbox           |
|  \\    /   O peration     | Version:  v2006                                 |
|   \\  /    A nd           | Website:  www.openfoam.com                      |
|    \\/     M anipulation  |                                                 |
\*---------------------------------------------------------------------------*/
FoamFile
{
    version     2.0;
    format      ascii;
    class       surfaceScalarField;
    location    "5.9";
    object      alphaPhi0.water;
}
// * * * * * * * * * * * * * * * * * * * * * * * * * * * * * * * * * * * * * //

dimensions      [0 3 -1 0 0 0 0];
oriented        oriented;


internalField   nonuniform List<scalar> 
65390
(
-7.87343e-05
8.42957e-06
-7.84453e-05
-2.89003e-07
-7.68973e-05
-1.54807e-06
-7.262e-05
-4.2773e-06
-6.75618e-05
-5.0583e-06
-6.19606e-05
-5.60139e-06
-5.6731e-05
-5.22967e-06
-5.22709e-05
-4.46025e-06
-4.83365e-05
-3.93457e-06
-4.442e-05
-3.91672e-06
-4.01574e-05
-4.26273e-06
-3.57847e-05
-4.37284e-06
-3.17698e-05
-4.01503e-06
-2.89642e-05
-2.80585e-06
-2.77443e-05
-1.22002e-06
-2.83769e-05
6.32416e-07
-3.12298e-05
2.85279e-06
-3.59063e-05
4.67643e-06
-4.19176e-05
6.01119e-06
-4.98564e-05
7.93855e-06
-5.90172e-05
9.16216e-06
-6.56306e-05
6.6237e-06
-6.87411e-05
3.12064e-06
-7.08128e-05
2.07169e-06
-7.27858e-05
1.95851e-06
-7.4149e-05
1.35308e-06
-7.48302e-05
6.8099e-07
-7.53673e-05
5.36863e-07
-7.6012e-05
6.44749e-07
-7.68275e-05
8.16326e-07
-7.78548e-05
1.04278e-06
-7.8892e-05
1.06531e-06
-7.98337e-05
9.16173e-07
-8.05644e-05
7.33111e-07
-8.13246e-05
7.62719e-07
-8.21937e-05
8.83344e-07
-8.29374e-05
7.21588e-07
-8.30983e-05
1.40791e-07
-8.26904e-05
-4.07962e-07
-8.21885e-05
-5.01877e-07
-8.20023e-05
-1.72597e-07
-8.24112e-05
4.54748e-07
-8.31154e-05
7.04318e-07
-8.38095e-05
6.60297e-07
-8.41185e-05
2.81439e-07
-8.36888e-05
-4.30837e-07
-8.29701e-05
-7.18769e-07
-8.24044e-05
-5.65571e-07
-8.22727e-05
-1.23394e-07
-8.23725e-05
1.33012e-07
-8.25449e-05
1.72337e-07
-8.26065e-05
3.72061e-08
-8.22809e-05
-3.36123e-07
-8.16864e-05
-5.96128e-07
-8.1041e-05
-6.45348e-07
-8.03532e-05
-6.89576e-07
-7.94557e-05
-9.01126e-07
-7.83384e-05
-1.11816e-06
-7.71431e-05
-1.19508e-06
-7.61373e-05
-1.0046e-06
-7.56236e-05
-5.00537e-07
-7.54266e-05
-1.77552e-07
-7.51734e-05
-2.53253e-07
-7.45496e-05
-6.47818e-07
-7.35486e-05
-1.0015e-06
-7.26349e-05
-9.13228e-07
-7.20794e-05
-5.53971e-07
-7.15302e-05
-5.54136e-07
-7.05129e-05
-1.02186e-06
-6.88284e-05
-1.68534e-06
-6.66102e-05
-2.21839e-06
-6.387e-05
-2.74022e-06
-6.07165e-05
-3.1536e-06
-5.70223e-05
-3.69062e-06
-5.26671e-05
-4.34325e-06
-4.7274e-05
-5.38155e-06
-4.05813e-05
-6.69267e-06
-3.18854e-05
-8.6959e-06
-2.47733e-05
-7.11453e-06
-2.14657e-05
-3.30921e-06
-1.9457e-05
-2.01099e-06
-1.99172e-05
4.53456e-07
-2.10074e-05
1.08902e-06
-2.2311e-05
1.30346e-06
-2.42235e-05
1.91246e-06
-2.58032e-05
1.57986e-06
-2.67895e-05
9.87093e-07
-2.74892e-05
7.01011e-07
-2.80228e-05
5.32036e-07
-2.82754e-05
2.51934e-07
-2.82393e-05
-3.57863e-08
-2.81376e-05
-1.00811e-07
-2.791e-05
-2.2401e-07
-2.75808e-05
-3.23482e-07
-2.71479e-05
-4.3424e-07
-2.66177e-05
-5.37673e-07
-2.5619e-05
-9.98685e-07
-2.42179e-05
-1.40108e-06
-2.21699e-05
-2.04738e-06
-2.08022e-05
-1.36841e-06
-2.05128e-05
-2.88784e-07
-2.04493e-05
-6.1756e-08
-2.07351e-05
2.88023e-07
-2.09224e-05
1.87391e-07
-2.1469e-05
5.46586e-07
-2.18652e-05
3.96344e-07
-2.19566e-05
8.81995e-08
-2.20017e-05
4.39218e-08
-2.19721e-05
-2.96352e-08
-2.19717e-05
-3.21321e-10
-2.19096e-05
-5.99554e-08
-2.18649e-05
-4.18672e-08
-2.17027e-05
-1.62205e-07
-2.13751e-05
-3.3186e-07
-2.06541e-05
-7.21447e-07
-1.96176e-05
-1.03634e-06
-1.8046e-05
-1.57095e-06
-1.69378e-05
-1.10645e-06
-1.67061e-05
-2.3177e-07
-1.67422e-05
3.57077e-08
-1.69768e-05
2.32853e-07
-1.70827e-05
1.05421e-07
-1.74279e-05
3.45402e-07
-1.76897e-05
2.63335e-07
-1.77754e-05
8.63817e-08
-1.79006e-05
1.25238e-07
-1.80081e-05
1.05458e-07
-1.80939e-05
8.57423e-08
-1.82061e-05
1.12211e-07
-1.82936e-05
8.78584e-08
-1.83523e-05
5.91221e-08
-1.84087e-05
5.61921e-08
-1.84416e-05
3.33949e-08
-1.84671e-05
2.62322e-08
-1.84894e-05
2.22267e-08
-1.85091e-05
1.77992e-08
-1.85189e-05
9.84601e-09
-1.8516e-05
-2.94514e-09
-1.85102e-05
-5.83753e-09
-1.84946e-05
-1.56011e-08
-1.84704e-05
-2.41469e-08
-1.84354e-05
-3.50418e-08
-1.83885e-05
-4.51693e-08
-1.83357e-05
-5.06866e-08
-1.82796e-05
-5.60804e-08
-1.8213e-05
-6.65282e-08
-1.81365e-05
-7.99825e-08
-1.80406e-05
-9.59111e-08
-1.7932e-05
-1.08682e-07
-1.78162e-05
-1.15802e-07
-1.76944e-05
-1.19512e-07
-1.7568e-05
-1.26472e-07
-1.74281e-05
-1.42583e-07
-1.72663e-05
-1.61763e-07
-1.70924e-05
-1.73956e-07
-1.69111e-05
-1.81319e-07
-1.67202e-05
-1.89246e-07
-1.65211e-05
-1.99051e-07
-1.63084e-05
-2.12706e-07
-1.60848e-05
-2.25153e-07
-1.58492e-05
-2.36112e-07
-1.56003e-05
-2.48941e-07
-1.53382e-05
-2.62164e-07
-1.50629e-05
-2.75214e-07
-1.47797e-05
-2.82727e-07
-1.44898e-05
-2.89756e-07
-1.41835e-05
-3.06841e-07
-1.38582e-05
-3.25279e-07
-1.35231e-05
-3.34841e-07
-1.31847e-05
-3.37995e-07
-1.28357e-05
-3.49396e-07
-1.24638e-05
-3.72087e-07
-1.20742e-05
-3.89656e-07
-1.16763e-05
-3.97751e-07
-1.12748e-05
-4.00838e-07
-1.08638e-05
-4.11158e-07
-1.04299e-05
-4.34358e-07
-9.97741e-06
-4.5247e-07
-9.51641e-06
-4.61026e-07
-9.04827e-06
-4.6802e-07
-8.56636e-06
-4.81905e-07
-8.06655e-06
-4.99032e-07
-7.56407e-06
-5.02529e-07
-7.05998e-06
-5.04099e-07
-6.54523e-06
-5.15356e-07
-6.01268e-06
-5.32542e-07
-5.46491e-06
-5.47726e-07
-4.91514e-06
-5.49393e-07
-4.36985e-06
-5.45288e-07
-3.82708e-06
-5.42776e-07
-3.28465e-06
-5.42818e-07
-2.73931e-06
-5.45352e-07
-2.19329e-06
-5.46012e-07
-1.65201e-06
-5.41211e-07
-1.12585e-06
-5.2607e-07
-6.13442e-07
-5.12443e-07
-1.12732e-07
-5.00712e-07
3.78874e-07
-4.91563e-07
8.65825e-07
-4.8694e-07
1.34676e-06
-4.80931e-07
1.81549e-06
-4.68733e-07
2.2654e-06
-4.50032e-07
2.69977e-06
-4.34465e-07
3.12499e-06
-4.25221e-07
3.54573e-06
-4.20479e-07
3.96198e-06
-4.16117e-07
4.36854e-06
-4.06556e-07
4.76218e-06
-3.93651e-07
5.14324e-06
-3.8133e-07
5.51756e-06
-3.74118e-07
5.88749e-06
-3.69814e-07
6.24801e-06
-3.60525e-07
6.59377e-06
-3.46063e-07
6.92893e-06
-3.35044e-07
7.25971e-06
-3.30466e-07
7.58638e-06
-3.26522e-07
7.90603e-06
-3.1973e-07
8.21406e-06
-3.0852e-07
8.50757e-06
-2.93786e-07
8.79088e-06
-2.83309e-07
9.06913e-06
-2.77451e-07
9.34286e-06
-2.73602e-07
9.61032e-06
-2.67436e-07
9.8681e-06
-2.57894e-07
1.01125e-05
-2.44971e-07
1.03461e-05
-2.33641e-07
1.05723e-05
-2.25664e-07
1.07912e-05
-2.18619e-07
1.10039e-05
-2.1271e-07
1.12093e-05
-2.05443e-07
1.14034e-05
-1.9477e-07
1.15847e-05
-1.82345e-07
1.17594e-05
-1.73349e-07
1.19258e-05
-1.6613e-07
1.20843e-05
-1.58502e-07
1.22351e-05
-1.51081e-07
1.23778e-05
-1.4273e-07
1.25105e-05
-1.3268e-07
1.26338e-05
-1.22879e-07
1.27482e-05
-1.14317e-07
1.28536e-05
-1.05326e-07
1.2949e-05
-9.5861e-08
1.30365e-05
-8.72761e-08
1.31168e-05
-7.98625e-08
1.31895e-05
-7.27553e-08
1.32545e-05
-6.49637e-08
1.33095e-05
-5.50199e-08
1.33516e-05
-4.26414e-08
1.33872e-05
-3.52821e-08
1.34176e-05
-3.01369e-08
1.34403e-05
-2.27014e-08
1.34542e-05
-1.3924e-08
1.34582e-05
-4.18352e-09
1.34527e-05
5.18898e-09
1.34401e-05
1.26511e-08
1.34208e-05
1.98442e-08
1.33937e-05
2.71593e-08
1.33593e-05
3.44342e-08
1.33163e-05
4.29515e-08
1.32648e-05
5.12989e-08
1.3206e-05
5.87886e-08
1.3141e-05
6.52233e-08
1.30704e-05
7.08282e-08
1.29927e-05
7.77149e-08
1.29063e-05
8.63476e-08
1.28105e-05
9.55524e-08
1.27073e-05
1.03291e-07
1.26004e-05
1.07192e-07
1.24892e-05
1.11263e-07
1.2372e-05
1.17251e-07
1.22486e-05
1.23426e-07
1.21179e-05
1.30667e-07
1.19789e-05
1.38847e-07
1.18348e-05
1.44317e-07
1.16868e-05
1.48092e-07
1.15342e-05
1.52681e-07
1.13766e-05
1.57581e-07
1.12144e-05
1.62218e-07
1.10482e-05
1.66311e-07
1.08782e-05
1.69953e-07
1.07028e-05
1.75403e-07
1.05204e-05
1.82367e-07
1.03347e-05
1.8584e-07
1.01478e-05
1.86948e-07
9.95852e-06
1.89334e-07
9.7659e-06
1.92649e-07
9.57017e-06
1.95745e-07
9.37078e-06
1.99271e-07
9.16724e-06
2.03546e-07
8.96097e-06
2.06264e-07
8.75394e-06
2.07104e-07
8.54609e-06
2.07832e-07
8.33684e-06
2.09227e-07
8.12611e-06
2.10677e-07
7.91246e-06
2.13513e-07
7.69642e-06
2.16041e-07
7.48071e-06
2.15751e-07
7.26503e-06
2.15647e-07
7.04937e-06
2.15609e-07
6.8345e-06
2.14797e-07
6.61836e-06
2.15978e-07
6.40152e-06
2.16846e-07
6.18655e-06
2.1496e-07
5.97339e-06
2.13156e-07
5.76192e-06
2.11436e-07
5.55106e-06
2.10823e-07
5.34212e-06
2.08998e-07
5.13611e-06
2.06048e-07
4.93374e-06
2.02378e-07
4.73487e-06
1.98887e-07
4.53753e-06
1.97322e-07
4.34191e-06
1.9563e-07
4.1499e-06
1.92062e-07
3.96323e-06
1.86696e-07
3.78133e-06
1.81925e-07
3.60211e-06
1.79225e-07
3.42561e-06
1.76511e-07
3.25334e-06
1.72297e-07
3.08497e-06
1.68382e-07
2.92025e-06
1.64716e-07
2.75785e-06
1.62402e-07
2.59684e-06
1.61005e-07
2.43871e-06
1.58167e-07
2.28366e-06
1.55061e-07
2.13034e-06
1.53337e-07
1.97685e-06
1.5347e-07
1.82301e-06
1.53845e-07
1.67051e-06
1.52497e-07
1.51963e-06
1.50872e-07
1.36937e-06
1.50256e-07
1.21825e-06
1.51122e-07
1.06541e-06
1.5284e-07
9.12975e-07
1.52454e-07
7.62849e-07
1.5014e-07
6.1566e-07
1.47194e-07
4.71103e-07
1.44556e-07
3.2884e-07
1.42255e-07
1.88926e-07
1.39906e-07
5.1555e-08
1.37367e-07
-8.19553e-08
1.33511e-07
-2.10828e-07
1.28878e-07
-3.35205e-07
1.24383e-07
-4.55265e-07
1.20066e-07
-5.7183e-07
1.16568e-07
-6.84713e-07
1.12879e-07
-7.92589e-07
1.07865e-07
-8.95034e-07
1.02437e-07
-9.92314e-07
9.7276e-08
-1.08519e-06
9.2881e-08
-1.17404e-06
8.88619e-08
-1.25836e-06
8.43263e-08
-1.33717e-06
7.88179e-08
-1.41049e-06
7.33235e-08
-1.4794e-06
6.89237e-08
-1.54385e-06
6.44459e-08
-1.60312e-06
5.92679e-08
-1.65722e-06
5.41039e-08
-1.7064e-06
4.91785e-08
-1.75075e-06
4.43472e-08
-1.79017e-06
3.94221e-08
-1.82471e-06
3.45526e-08
-1.85448e-06
2.97648e-08
-1.87952e-06
2.50356e-08
-1.90014e-06
2.06224e-08
-1.91643e-06
1.62873e-08
-1.92834e-06
1.19052e-08
-1.93561e-06
7.26548e-09
-1.93834e-06
2.7266e-09
-1.93674e-06
-1.6042e-09
-1.93122e-06
-5.50954e-09
-1.92192e-06
-9.29817e-09
-1.90867e-06
-1.32491e-08
-1.89129e-06
-1.73749e-08
-1.87e-06
-2.12872e-08
-1.84523e-06
-2.47667e-08
-1.81719e-06
-2.80487e-08
-1.78586e-06
-3.13351e-08
-1.75141e-06
-3.44451e-08
-1.71421e-06
-3.71992e-08
-1.67449e-06
-3.97216e-08
-1.63194e-06
-4.25502e-08
-1.58653e-06
-4.54083e-08
-1.53838e-06
-4.8144e-08
-1.48802e-06
-5.03634e-08
-1.43564e-06
-5.23738e-08
-1.38146e-06
-5.41819e-08
-1.32579e-06
-5.567e-08
-1.26841e-06
-5.73816e-08
-1.20929e-06
-5.9124e-08
-1.14878e-06
-6.05103e-08
-1.08755e-06
-6.1232e-08
-1.02543e-06
-6.21248e-08
-9.62249e-07
-6.31839e-08
-8.98151e-07
-6.40984e-08
-8.33634e-07
-6.45167e-08
-7.68602e-07
-6.50308e-08
-7.03363e-07
-6.52367e-08
-6.38342e-07
-6.50181e-08
-5.7352e-07
-6.48186e-08
-5.08851e-07
-6.46689e-08
-4.44097e-07
-6.47548e-08
-3.79321e-07
-6.47776e-08
-3.14823e-07
-6.45008e-08
-2.51133e-07
-6.36926e-08
-1.87677e-07
-6.34589e-08
-1.25481e-07
-6.21973e-08
-6.28599e-08
-6.26236e-08
-1.06407e-09
-6.17973e-08
6.09833e-08
-6.20477e-08
1.21964e-07
-6.09804e-08
1.81693e-07
-5.97279e-08
2.40494e-07
-5.87979e-08
2.96875e-07
-5.63791e-08
3.54209e-07
-5.73306e-08
4.0975e-07
-5.55394e-08
4.63452e-07
-5.37002e-08
5.16246e-07
-5.27925e-08
5.63867e-07
-4.76194e-08
6.06745e-07
-4.28771e-08
6.5672e-07
-4.99733e-08
7.03704e-07
-4.69842e-08
7.49079e-07
-4.53747e-08
7.99802e-07
-5.07227e-08
8.18077e-07
-1.82754e-08
8.24632e-07
-6.55523e-09
8.71808e-07
-4.71762e-08
8.95634e-07
-2.38254e-08
9.6189e-07
-6.62551e-08
1.05922e-06
-9.73302e-08
1.28245e-06
-2.23225e-07
1.56741e-06
-2.84962e-07
1.76007e-06
-1.92655e-07
1.91158e-06
-1.51513e-07
2.01586e-06
-1.04271e-07
2.09596e-06
-8.01035e-08
2.15886e-06
-6.29009e-08
2.2205e-06
-6.16371e-08
2.27716e-06
-5.66528e-08
2.33051e-06
-5.33522e-08
2.37355e-06
-4.30374e-08
2.42182e-06
-4.8275e-08
2.42217e-06
-3.4259e-10
2.40304e-06
1.91242e-08
2.43352e-06
-3.04692e-08
2.43964e-06
-6.12695e-09
2.50154e-06
-6.18956e-08
2.60872e-06
-1.07181e-07
2.88756e-06
-2.78834e-07
3.24825e-06
-3.60691e-07
3.49295e-06
-2.44692e-07
3.69474e-06
-2.01789e-07
3.82072e-06
-1.25981e-07
3.92773e-06
-1.07006e-07
4.00784e-06
-8.01149e-08
4.07423e-06
-6.63868e-08
4.12027e-06
-4.60403e-08
4.14274e-06
-2.24663e-08
4.16532e-06
-2.25814e-08
4.18584e-06
-2.0523e-08
4.1953e-06
-9.46058e-09
4.2318e-06
-3.64934e-08
4.2253e-06
6.49497e-09
4.10859e-06
1.16715e-07
4.03231e-06
7.62746e-08
3.96636e-06
6.59527e-08
3.92842e-06
3.79441e-08
4.14953e-06
-2.21128e-07
4.56693e-06
-4.17433e-07
5.54643e-06
-9.79522e-07
6.75846e-06
-1.2121e-06
7.74983e-06
-9.91584e-07
8.48338e-06
-7.33758e-07
9.01354e-06
-5.30177e-07
9.4061e-06
-3.9257e-07
9.70948e-06
-3.03372e-07
9.9537e-06
-2.44258e-07
1.01518e-05
-1.98079e-07
1.03158e-05
-1.64081e-07
1.04552e-05
-1.39349e-07
1.05783e-05
-1.23088e-07
1.06848e-05
-1.06479e-07
1.07771e-05
-9.22424e-08
1.08611e-05
-8.39815e-08
1.09353e-05
-7.42097e-08
1.10008e-05
-6.55236e-08
1.10624e-05
-6.15867e-08
1.11167e-05
-5.42057e-08
1.11647e-05
-4.79565e-08
1.12085e-05
-4.37921e-08
1.12514e-05
-4.29255e-08
1.1289e-05
-3.75829e-08
1.13209e-05
-3.19291e-08
1.13496e-05
-2.86725e-08
1.13762e-05
-2.65797e-08
1.14008e-05
-2.46331e-08
1.14232e-05
-2.23714e-08
1.14432e-05
-2.00332e-08
1.14614e-05
-1.81307e-08
1.1477e-05
-1.56846e-08
1.14908e-05
-1.3777e-08
1.15007e-05
-9.92878e-09
1.15115e-05
-1.08188e-08
1.15238e-05
-1.22453e-08
1.15357e-05
-1.18774e-08
1.15463e-05
-1.0677e-08
1.15554e-05
-9.06941e-09
1.15627e-05
-7.35205e-09
1.15686e-05
-5.83648e-09
1.15735e-05
-4.86237e-09
1.15774e-05
-3.96703e-09
1.15803e-05
-2.84078e-09
1.1582e-05
-1.66828e-09
1.15825e-05
-4.90076e-10
1.15844e-05
-1.8963e-09
1.15833e-05
1.06128e-09
1.15789e-05
4.38001e-09
1.15734e-05
5.5415e-09
1.15676e-05
5.79757e-09
1.15616e-05
6.00934e-09
1.15557e-05
5.93015e-09
1.15497e-05
5.97781e-09
1.15435e-05
6.22907e-09
1.15367e-05
6.70484e-09
1.15293e-05
7.46437e-09
1.15209e-05
8.34265e-09
1.15119e-05
9.07215e-09
1.15025e-05
9.40795e-09
1.14931e-05
9.34927e-09
1.14837e-05
9.41998e-09
1.14737e-05
9.98998e-09
1.14627e-05
1.10679e-08
1.14504e-05
1.22398e-08
1.14379e-05
1.2561e-08
1.14258e-05
1.21029e-08
1.1414e-05
1.18237e-08
1.14014e-05
1.26031e-08
1.13874e-05
1.39903e-08
1.13732e-05
1.41637e-08
1.13596e-05
1.3604e-08
1.13464e-05
1.32493e-08
1.13305e-05
1.59003e-08
1.13175e-05
1.29684e-08
1.13072e-05
1.02989e-08
1.12998e-05
7.46326e-09
1.12887e-05
1.11183e-08
1.12751e-05
1.35698e-08
1.12607e-05
1.44399e-08
1.12461e-05
1.46066e-08
1.12317e-05
1.43777e-08
1.42932e-08
-7.17779e-05
9.88123e-06
-7.0887e-05
-1.18029e-06
-6.89341e-05
-3.50124e-06
-6.66147e-05
-6.59692e-06
-6.40672e-05
-7.60591e-06
-6.18656e-05
-7.80316e-06
-5.98872e-05
-7.20816e-06
-5.81513e-05
-6.19623e-06
-5.68514e-05
-5.23449e-06
-5.59943e-05
-4.77363e-06
-5.57156e-05
-4.5413e-06
-5.58114e-05
-4.2768e-06
-5.61949e-05
-3.63126e-06
-5.65314e-05
-2.46895e-06
-5.73002e-05
-4.50936e-07
-5.91987e-05
2.53125e-06
-6.231e-05
5.9646e-06
-6.58357e-05
8.20256e-06
-6.84809e-05
8.6559e-06
-6.93658e-05
8.82322e-06
-6.86897e-05
8.48776e-06
-6.8501e-05
6.44601e-06
-6.98399e-05
4.47262e-06
-7.15647e-05
3.79652e-06
-7.30673e-05
3.44957e-06
-7.4314e-05
2.58836e-06
-7.54148e-05
1.78164e-06
-7.63191e-05
1.44122e-06
-7.70502e-05
1.37653e-06
-7.7672e-05
1.45747e-06
-7.83129e-05
1.7181e-06
-7.9241e-05
1.99338e-06
-8.02622e-05
1.91224e-06
-8.12062e-05
1.67965e-06
-8.19101e-05
1.49472e-06
-8.23575e-05
1.32796e-06
-8.25727e-05
9.13938e-07
-8.26497e-05
1.83208e-07
-8.27111e-05
-3.4903e-07
-8.2773e-05
-4.35373e-07
-8.26893e-05
-2.28679e-07
-8.26269e-05
4.25727e-07
-8.27678e-05
8.45385e-07
-8.2966e-05
8.58681e-07
-8.3094e-05
3.569e-07
-8.29234e-05
-6.1285e-07
-8.27077e-05
-9.35164e-07
-8.23612e-05
-9.06118e-07
-8.19893e-05
-4.56039e-07
-8.19112e-05
5.48723e-08
-8.19198e-05
1.80979e-07
-8.19533e-05
7.07258e-08
-8.1957e-05
-3.69192e-07
-8.16707e-05
-8.86765e-07
-8.1133e-05
-1.18448e-06
-8.04687e-05
-1.35442e-06
-7.97311e-05
-1.64085e-06
-7.89299e-05
-1.91987e-06
-7.81611e-05
-1.95953e-06
-7.74546e-05
-1.68736e-06
-7.67983e-05
-1.1344e-06
-7.61104e-05
-8.65476e-07
-7.51956e-05
-1.16789e-06
-7.4097e-05
-1.7465e-06
-7.31114e-05
-2.01542e-06
-7.23968e-05
-1.61454e-06
-7.1823e-05
-1.11724e-06
-7.12028e-05
-1.17435e-06
-7.03956e-05
-1.86515e-06
-6.93451e-05
-2.74136e-06
-6.79017e-05
-3.66284e-06
-6.61145e-05
-4.52678e-06
-6.42172e-05
-5.03996e-06
-6.24908e-05
-5.39768e-06
-6.10235e-05
-5.81052e-06
-5.96788e-05
-6.72625e-06
-5.79092e-05
-8.46227e-06
-5.64439e-05
-1.01864e-05
-5.27873e-05
-1.07782e-05
-4.63206e-05
-9.77702e-06
-3.76746e-05
-1.06573e-05
-2.91073e-05
-8.11399e-06
-2.41945e-05
-3.82381e-06
-2.11485e-05
-1.74285e-06
-2.03497e-05
1.11368e-06
-2.07538e-05
1.98388e-06
-2.18777e-05
2.11137e-06
-2.41077e-05
2.93394e-06
-2.642e-05
2.84749e-06
-2.75692e-05
1.39561e-06
-2.81092e-05
5.03026e-07
-2.83131e-05
1.05079e-07
-2.82519e-05
-2.78609e-07
-2.80884e-05
-4.87145e-07
-2.7915e-05
-6.09029e-07
-2.76394e-05
-8.20243e-07
-2.74839e-05
-1.15417e-06
-2.75725e-05
-1.31198e-06
-2.81279e-05
-1.4905e-06
-2.80388e-05
-1.4572e-06
-2.68147e-05
-1.51396e-06
-2.46777e-05
-2.19711e-06
-2.29866e-05
-1.40028e-06
-2.22845e-05
-5.14656e-07
-2.16301e-05
-1.07705e-07
-2.13636e-05
1.29754e-07
-2.12705e-05
-8.87876e-09
-2.14591e-05
2.32533e-07
-2.19574e-05
4.68585e-07
-2.23484e-05
3.91423e-07
-2.231e-05
-9.21474e-08
-2.22406e-05
-1.11233e-07
-2.21363e-05
-2.6657e-07
-2.20376e-05
-4.30451e-07
-2.20627e-05
-7.01599e-07
-2.20906e-05
-1.0104e-06
-2.22254e-05
-1.43617e-06
-2.18263e-05
-1.50403e-06
-2.07976e-05
-1.25938e-06
-1.92519e-05
-1.51005e-06
-1.80489e-05
-9.72007e-07
-1.7639e-05
-3.0458e-07
-1.73947e-05
1.03427e-07
-1.74319e-05
3.02471e-07
-1.75424e-05
1.96866e-07
-1.78892e-05
4.72054e-07
-1.81409e-05
3.54648e-07
-1.81832e-05
1.25872e-07
-1.82309e-05
1.59954e-07
-1.82807e-05
1.3812e-07
-1.83371e-05
1.16814e-07
-1.8425e-05
1.43795e-07
-1.84844e-05
9.22696e-08
-1.85053e-05
4.89323e-08
-1.85143e-05
3.11878e-08
-1.85133e-05
1.68229e-08
-1.85182e-05
1.23229e-08
-1.85155e-05
-6.08631e-09
-1.85159e-05
-5.03023e-09
-1.85051e-05
-2.61791e-08
-1.84824e-05
-4.74276e-08
-1.84499e-05
-6.80969e-08
-1.84043e-05
-8.87084e-08
-1.83505e-05
-1.02358e-07
-1.82915e-05
-1.15093e-07
-1.82221e-05
-1.3598e-07
-1.81392e-05
-1.62833e-07
-1.80466e-05
-1.91835e-07
-1.79419e-05
-2.13376e-07
-1.78301e-05
-2.2608e-07
-1.7708e-05
-2.39604e-07
-1.75741e-05
-2.60326e-07
-1.74265e-05
-2.91238e-07
-1.72674e-05
-3.24145e-07
-1.70967e-05
-3.44666e-07
-1.692e-05
-3.57856e-07
-1.67313e-05
-3.76115e-07
-1.65285e-05
-4.01878e-07
-1.63088e-05
-4.32385e-07
-1.60783e-05
-4.55665e-07
-1.58431e-05
-4.73031e-07
-1.55973e-05
-4.95389e-07
-1.53374e-05
-5.22258e-07
-1.50628e-05
-5.49498e-07
-1.47789e-05
-5.65733e-07
-1.44857e-05
-5.8265e-07
-1.41778e-05
-6.15898e-07
-1.38528e-05
-6.50245e-07
-1.35184e-05
-6.68478e-07
-1.31772e-05
-6.78216e-07
-1.28248e-05
-7.02979e-07
-1.24543e-05
-7.43066e-07
-1.20674e-05
-7.76501e-07
-1.16712e-05
-7.93172e-07
-1.12663e-05
-8.05031e-07
-1.08488e-05
-8.29026e-07
-1.04181e-05
-8.65862e-07
-9.97223e-06
-8.98386e-07
-9.51349e-06
-9.19111e-07
-9.04286e-06
-9.38876e-07
-8.55709e-06
-9.6833e-07
-8.06178e-06
-9.94018e-07
-7.56273e-06
-1.00113e-06
-7.05629e-06
-1.01054e-06
-6.54139e-06
-1.03025e-06
-6.01658e-06
-1.0582e-06
-5.47874e-06
-1.08586e-06
-4.93349e-06
-1.09457e-06
-4.38511e-06
-1.09367e-06
-3.84038e-06
-1.0875e-06
-3.30422e-06
-1.07914e-06
-2.77095e-06
-1.0788e-06
-2.23766e-06
-1.07941e-06
-1.70353e-06
-1.07535e-06
-1.17263e-06
-1.05707e-06
-6.52252e-07
-1.03284e-06
-1.47622e-07
-1.00534e-06
3.43579e-07
-9.82766e-07
8.27815e-07
-9.71129e-07
1.30689e-06
-9.60033e-07
1.77501e-06
-9.36886e-07
2.22752e-06
-9.02779e-07
2.6688e-06
-8.75748e-07
3.10195e-06
-8.58371e-07
3.52755e-06
-8.45963e-07
3.94326e-06
-8.31693e-07
4.3476e-06
-8.10908e-07
4.74125e-06
-7.87554e-07
5.12695e-06
-7.67028e-07
5.50566e-06
-7.52734e-07
5.8762e-06
-7.40183e-07
6.23531e-06
-7.19633e-07
6.58179e-06
-6.93148e-07
6.92187e-06
-6.74543e-07
7.25542e-06
-6.64055e-07
7.58204e-06
-6.52933e-07
7.89999e-06
-6.37661e-07
8.20847e-06
-6.17234e-07
8.50555e-06
-5.91483e-07
8.79298e-06
-5.70742e-07
9.07212e-06
-5.56585e-07
9.34587e-06
-5.46599e-07
9.61156e-06
-5.33098e-07
9.86832e-06
-5.14727e-07
1.01147e-05
-4.9216e-07
1.03518e-05
-4.70742e-07
1.05795e-05
-4.53319e-07
1.07988e-05
-4.37925e-07
1.10113e-05
-4.24399e-07
1.1215e-05
-4.09135e-07
1.14095e-05
-3.89528e-07
1.15935e-05
-3.66957e-07
1.17685e-05
-3.48311e-07
1.19352e-05
-3.32903e-07
1.20946e-05
-3.17912e-07
1.22469e-05
-3.02609e-07
1.23899e-05
-2.85595e-07
1.25229e-05
-2.65554e-07
1.2645e-05
-2.45306e-07
1.27578e-05
-2.27379e-07
1.2862e-05
-2.1022e-07
1.29595e-05
-1.93138e-07
1.30494e-05
-1.76959e-07
1.31307e-05
-1.60696e-07
1.32028e-05
-1.44505e-07
1.32657e-05
-1.27882e-07
1.33191e-05
-1.08848e-07
1.33634e-05
-8.73758e-08
1.34009e-05
-7.23289e-08
1.34311e-05
-5.99088e-08
1.34528e-05
-4.44103e-08
1.34651e-05
-2.62277e-08
1.34678e-05
-7.40949e-09
1.34635e-05
9.45858e-09
1.34525e-05
2.37064e-08
1.34337e-05
3.86353e-08
1.34069e-05
5.43046e-08
1.33713e-05
7.04183e-08
1.33261e-05
8.81505e-08
1.32739e-05
1.03206e-07
1.32164e-05
1.16257e-07
1.31521e-05
1.29531e-07
1.30809e-05
1.42457e-07
1.30017e-05
1.56923e-07
1.29138e-05
1.73854e-07
1.28184e-05
1.90842e-07
1.27166e-05
2.051e-07
1.26101e-05
2.14172e-07
1.2498e-05
2.23686e-07
1.23794e-05
2.35926e-07
1.22541e-05
2.48763e-07
1.2122e-05
2.62487e-07
1.19844e-05
2.76348e-07
1.18414e-05
2.87308e-07
1.16932e-05
2.9668e-07
1.15393e-05
3.06751e-07
1.13807e-05
3.16234e-07
1.12179e-05
3.25109e-07
1.1051e-05
3.33257e-07
1.08799e-05
3.41019e-07
1.07035e-05
3.51842e-07
1.05216e-05
3.64002e-07
1.03366e-05
3.70819e-07
1.01497e-05
3.74216e-07
9.95937e-06
3.79726e-07
9.76516e-06
3.86893e-07
9.56765e-06
3.93264e-07
9.36765e-06
3.9922e-07
9.16495e-06
4.06105e-07
8.95994e-06
4.11233e-07
8.75315e-06
4.13942e-07
8.54423e-06
4.16829e-07
8.33306e-06
4.20389e-07
8.12081e-06
4.22873e-07
7.90754e-06
4.26542e-07
7.69371e-06
4.29864e-07
7.47889e-06
4.30489e-07
7.26207e-06
4.3247e-07
7.04444e-06
4.33173e-07
6.82819e-06
4.30977e-07
6.61331e-06
4.30683e-07
6.39912e-06
4.31028e-07
6.18411e-06
4.29991e-07
5.96892e-06
4.28328e-07
5.75697e-06
4.23383e-07
5.54796e-06
4.19784e-07
5.34031e-06
4.16645e-07
5.13371e-06
4.12682e-07
4.92993e-06
4.062e-07
4.72979e-06
3.99038e-07
4.53295e-06
3.94148e-07
4.33904e-06
3.89535e-07
4.1471e-06
3.84045e-07
3.95878e-06
3.75048e-07
3.77531e-06
3.6542e-07
3.59599e-06
3.5853e-07
3.42019e-06
3.52314e-07
3.24688e-06
3.45617e-07
3.07586e-06
3.39414e-07
2.90831e-06
3.32279e-07
2.74451e-06
3.262e-07
2.58376e-06
3.21759e-07
2.42516e-06
3.16791e-07
2.26786e-06
3.12365e-07
2.11133e-06
3.09873e-07
1.95607e-06
3.08712e-07
1.80233e-06
3.07564e-07
1.64971e-06
3.05107e-07
1.49771e-06
3.02879e-07
1.34566e-06
3.02314e-07
1.1939e-06
3.02893e-07
1.04282e-06
3.0393e-07
8.92565e-07
3.02715e-07
7.43878e-07
2.98831e-07
5.97108e-07
2.9396e-07
4.52401e-07
2.89254e-07
3.10429e-07
2.84217e-07
1.71717e-07
2.78614e-07
3.61971e-08
2.72889e-07
-9.61952e-08
2.65911e-07
-2.25148e-07
2.57838e-07
-3.4996e-07
2.492e-07
-4.70547e-07
2.40652e-07
-5.87196e-07
2.3321e-07
-6.99081e-07
2.2475e-07
-8.06054e-07
2.14832e-07
-9.08529e-07
2.04902e-07
-1.00641e-06
1.95162e-07
-1.09962e-06
1.86102e-07
-1.18796e-06
1.77219e-07
-1.27138e-06
1.67757e-07
-1.34993e-06
1.57379e-07
-1.4236e-06
1.46999e-07
-1.49229e-06
1.37614e-07
-1.55605e-06
1.28215e-07
-1.61516e-06
1.18365e-07
-1.66958e-06
1.08532e-07
-1.71896e-06
9.85568e-08
-1.76318e-06
8.85751e-08
-1.80246e-06
7.87023e-08
-1.83698e-06
6.9075e-08
-1.86683e-06
5.96136e-08
-1.89187e-06
5.00708e-08
-1.9122e-06
4.09427e-08
-1.9279e-06
3.19784e-08
-1.93909e-06
2.30844e-08
-1.94595e-06
1.41183e-08
-1.94848e-06
5.2585e-09
-1.94681e-06
-3.2634e-09
-1.94103e-06
-1.12809e-08
-1.93123e-06
-1.90896e-08
-1.91752e-06
-2.69545e-08
-1.89987e-06
-3.50259e-08
-1.87836e-06
-4.27952e-08
-1.85328e-06
-4.9851e-08
-1.82489e-06
-5.64511e-08
-1.79341e-06
-6.2819e-08
-1.75874e-06
-6.91104e-08
-1.72089e-06
-7.50457e-08
-1.68013e-06
-8.04829e-08
-1.63676e-06
-8.59187e-08
-1.59097e-06
-9.12022e-08
-1.54262e-06
-9.64898e-08
-1.49208e-06
-1.00903e-07
-1.43949e-06
-1.04956e-07
-1.38507e-06
-1.08601e-07
-1.32881e-06
-1.11937e-07
-1.27085e-06
-1.15349e-07
-1.21147e-06
-1.18512e-07
-1.15094e-06
-1.21039e-07
-1.08913e-06
-1.23049e-07
-1.02619e-06
-1.25065e-07
-9.62481e-07
-1.269e-07
-8.98406e-07
-1.28174e-07
-8.33862e-07
-1.2906e-07
-7.68835e-07
-1.30057e-07
-7.03408e-07
-1.30661e-07
-6.37809e-07
-1.30614e-07
-5.72169e-07
-1.30461e-07
-5.07245e-07
-1.29594e-07
-4.4232e-07
-1.29686e-07
-3.77859e-07
-1.29244e-07
-3.1355e-07
-1.28817e-07
-2.49851e-07
-1.27397e-07
-1.85998e-07
-1.27318e-07
-1.23567e-07
-1.24633e-07
-6.12147e-08
-1.2498e-07
-6.34341e-10
-1.22381e-07
5.95498e-08
-1.22233e-07
1.20808e-07
-1.22239e-07
1.81091e-07
-1.20009e-07
2.42778e-07
-1.20484e-07
3.0113e-07
-1.14731e-07
3.59274e-07
-1.15473e-07
4.10667e-07
-1.06932e-07
4.58633e-07
-1.01667e-07
5.13687e-07
-1.07847e-07
5.69919e-07
-1.03853e-07
6.2699e-07
-9.9951e-08
6.82961e-07
-1.05947e-07
7.02795e-07
-6.6822e-08
7.0926e-07
-5.18441e-08
7.57891e-07
-9.93587e-08
8.17338e-07
-7.77278e-08
9.28842e-07
-1.18063e-07
1.05195e-06
-1.70287e-07
1.28827e-06
-2.60153e-07
1.56586e-06
-3.4385e-07
1.75737e-06
-2.88833e-07
1.86447e-06
-3.30335e-07
1.89717e-06
-3.17659e-07
1.9523e-06
-2.47787e-07
2.00078e-06
-2.00002e-07
2.0694e-06
-1.72893e-07
2.13341e-06
-1.4411e-07
2.20644e-06
-1.3594e-07
2.27187e-06
-1.27071e-07
2.33169e-06
-1.16473e-07
2.34334e-06
-6.50073e-08
2.32973e-06
-2.94307e-08
2.37191e-06
-9.04533e-08
2.42919e-06
-5.76285e-08
2.56213e-06
-1.1382e-07
2.71315e-06
-1.81491e-07
3.01739e-06
-3.10367e-07
3.37458e-06
-4.19103e-07
3.62448e-06
-3.57083e-07
3.75733e-06
-4.11683e-07
3.78808e-06
-3.91444e-07
3.84982e-06
-3.06432e-07
3.90511e-06
-2.57077e-07
3.96329e-06
-1.84179e-07
3.99739e-06
-1.41102e-07
4.03645e-06
-1.19184e-07
4.07934e-06
-1.09277e-07
4.13285e-06
-9.95442e-08
4.18779e-06
-7.74013e-08
4.26477e-06
-9.9573e-08
4.28613e-06
-4.18964e-08
4.18023e-06
9.64436e-08
4.092e-06
5.17359e-08
4.05825e-06
4.0241e-08
4.1488e-06
2.61745e-08
4.50795e-06
-2.82865e-07
5.12971e-06
-5.55795e-07
6.26418e-06
-1.09651e-06
7.39935e-06
-1.35625e-06
8.28266e-06
-1.30067e-06
8.77503e-06
-1.47174e-06
8.94347e-06
-1.38037e-06
9.14915e-06
-1.19708e-06
9.35703e-06
-9.41477e-07
9.56726e-06
-7.40294e-07
9.76702e-06
-5.92235e-07
9.9502e-06
-4.86474e-07
1.01168e-05
-4.10745e-07
1.02668e-05
-3.48062e-07
1.04004e-05
-2.97704e-07
1.05215e-05
-2.60474e-07
1.06306e-05
-2.32098e-07
1.07275e-05
-2.03448e-07
1.08145e-05
-1.79168e-07
1.08933e-05
-1.62817e-07
1.09645e-05
-1.4546e-07
1.10289e-05
-1.29996e-07
1.1088e-05
-1.20679e-07
1.11417e-05
-1.07947e-07
1.11907e-05
-9.70196e-08
1.12356e-05
-8.86442e-08
1.12769e-05
-8.4235e-08
1.13141e-05
-7.48866e-08
1.13477e-05
-6.54899e-08
1.1378e-05
-5.90909e-08
1.14058e-05
-5.43001e-08
1.14306e-05
-4.94326e-08
1.1453e-05
-4.48067e-08
1.14733e-05
-4.03691e-08
1.14917e-05
-3.6489e-08
1.15076e-05
-3.15674e-08
1.15217e-05
-2.78569e-08
1.15343e-05
-2.25109e-08
1.15457e-05
-2.2263e-08
1.15561e-05
-2.25901e-08
1.15654e-05
-2.1126e-08
1.15735e-05
-1.87762e-08
1.15806e-05
-1.60936e-08
1.15868e-05
-1.35524e-08
1.15918e-05
-1.0863e-08
1.15958e-05
-8.84667e-09
1.15988e-05
-7.00186e-09
1.16008e-05
-4.8179e-09
1.16014e-05
-2.2961e-09
1.16011e-05
-2.49641e-10
1.16e-05
-7.52722e-10
1.15975e-05
3.54699e-09
1.15942e-05
7.65322e-09
1.15902e-05
9.49829e-09
1.15855e-05
1.04414e-08
1.15803e-05
1.12401e-08
1.15744e-05
1.18651e-08
1.1568e-05
1.24062e-08
1.15612e-05
1.30179e-08
1.1554e-05
1.39042e-08
1.15462e-05
1.52304e-08
1.15377e-05
1.68018e-08
1.15287e-05
1.81324e-08
1.15192e-05
1.88327e-08
1.15095e-05
1.90912e-08
1.14994e-05
1.95174e-08
1.14884e-05
2.0939e-08
1.14765e-05
2.30039e-08
1.14643e-05
2.43758e-08
1.14525e-05
2.43783e-08
1.14406e-05
2.39794e-08
1.14279e-05
2.45171e-08
1.14144e-05
2.60751e-08
1.1401e-05
2.74498e-08
1.13883e-05
2.6801e-08
1.13753e-05
2.65775e-08
1.13615e-05
2.70746e-08
1.13471e-05
3.02525e-08
1.13336e-05
2.65226e-08
1.13207e-05
2.31688e-08
1.13074e-05
2.07994e-08
1.12928e-05
2.57323e-08
1.1278e-05
2.82803e-08
1.12634e-05
2.8962e-08
1.12491e-05
2.88979e-08
1.12344e-05
2.90937e-08
3.12546e-08
-6.75228e-05
7.03749e-06
-6.68348e-05
-1.86843e-06
-6.57199e-05
-4.61623e-06
-6.46825e-05
-7.63438e-06
-6.39989e-05
-8.28964e-06
-6.347e-05
-8.3322e-06
-6.29692e-05
-7.70925e-06
-6.27592e-05
-6.4065e-06
-6.32698e-05
-4.72416e-06
-6.48628e-05
-3.1809e-06
-6.74384e-05
-1.96588e-06
-7.04979e-05
-1.2173e-06
-7.33726e-05
-7.56669e-07
-7.54916e-05
-3.4992e-07
-7.67918e-05
8.49531e-07
-7.73137e-05
3.0534e-06
-7.68482e-05
5.49922e-06
-7.58159e-05
7.17018e-06
-7.51069e-05
7.94496e-06
-7.44205e-05
8.13608e-06
-7.35128e-05
7.57968e-06
-7.32029e-05
6.13689e-06
-7.38326e-05
5.10728e-06
-7.4679e-05
4.65389e-06
-7.5438e-05
4.21352e-06
-7.63956e-05
3.55065e-06
-7.7479e-05
2.85406e-06
-7.82634e-05
2.20999e-06
-7.87888e-05
1.90066e-06
-7.92198e-05
1.90783e-06
-7.96456e-05
2.18309e-06
-8.02737e-05
2.62142e-06
-8.106e-05
2.69858e-06
-8.18842e-05
2.5039e-06
-8.24114e-05
2.02198e-06
-8.24993e-05
1.37152e-06
-8.23965e-05
7.93799e-07
-8.25192e-05
3.04181e-07
-8.28545e-05
-1.37932e-08
-8.31686e-05
-1.21331e-07
-8.33457e-05
-4.697e-08
-8.3115e-05
2.19351e-07
-8.28073e-05
5.61933e-07
-8.25476e-05
5.99025e-07
-8.24037e-05
1.64411e-07
-8.24303e-05
-5.89999e-07
-8.25212e-05
-8.44288e-07
-8.25755e-05
-8.50102e-07
-8.23579e-05
-6.54838e-07
-8.20482e-05
-2.32842e-07
-8.1862e-05
-5.20269e-09
-8.17527e-05
-3.85671e-08
-8.17633e-05
-3.84507e-07
-8.1692e-05
-9.74757e-07
-8.14493e-05
-1.42842e-06
-8.10545e-05
-1.7494e-06
-8.05929e-05
-2.10259e-06
-8.00802e-05
-2.43232e-06
-7.95407e-05
-2.48908e-06
-7.89219e-05
-2.26999e-06
-7.81163e-05
-1.94004e-06
-7.70053e-05
-1.97639e-06
-7.5667e-05
-2.53515e-06
-7.43102e-05
-3.1052e-06
-7.32363e-05
-3.05785e-06
-7.24881e-05
-2.36273e-06
-7.17184e-05
-1.88693e-06
-7.09233e-05
-1.9695e-06
-7.01735e-05
-2.61495e-06
-6.94479e-05