/*--------------------------------*- C++ -*----------------------------------*\
| =========                 |                                                 |
| \\      /  F ield         | OpenFOAM: The Open Source CFD Toolbox           |
|  \\    /   O peration     | Version:  v2006                                 |
|   \\  /    A nd           | Website:  www.openfoam.com                      |
|    \\/     M anipulation  |                                                 |
\*---------------------------------------------------------------------------*/
FoamFile
{
    version     2.0;
    format      ascii;
    class       volScalarField;
    location    "5.9";
    object      k;
}
// * * * * * * * * * * * * * * * * * * * * * * * * * * * * * * * * * * * * * //

dimensions      [0 2 -2 0 0 0 0];


internalField   nonuniform List<scalar> 
33000
(
2.88753e-08
2.92257e-08
2.93324e-08
2.94248e-08
2.99351e-08
3.08978e-08
3.24189e-08
3.44972e-08
3.70833e-08
4.01733e-08
4.3803e-08
4.79776e-08
5.25008e-08
5.68941e-08
6.07674e-08
6.43772e-08
7.00743e-08
8.09657e-08
1.0078e-07
1.31672e-07
1.69786e-07
2.05557e-07
2.32723e-07
2.5121e-07
2.62659e-07
2.68975e-07
2.72212e-07
2.74217e-07
2.76222e-07
2.78579e-07
2.80862e-07
2.82467e-07
2.83171e-07
2.8306e-07
2.82203e-07
2.80415e-07
2.7743e-07
2.73407e-07
2.6931e-07
2.68058e-07
2.70682e-07
2.74801e-07
2.7713e-07
2.7648e-07
2.72976e-07
2.6773e-07
2.63729e-07
2.63447e-07
2.65705e-07
2.67686e-07
2.67564e-07
2.65118e-07
2.60893e-07
2.56742e-07
2.53517e-07
2.5082e-07
2.48347e-07
2.46959e-07
2.47816e-07
2.51474e-07
2.56963e-07
2.61166e-07
2.616e-07
2.58603e-07
2.54597e-07
2.51695e-07
2.48925e-07
2.43202e-07
2.33583e-07
2.21808e-07
2.10163e-07
1.99484e-07
1.90064e-07
1.81344e-07
1.73082e-07
1.64807e-07
1.57116e-07
1.52031e-07
1.54986e-07
1.61787e-07
1.6246e-07
1.67166e-07
1.6844e-07
1.74664e-07
1.82745e-07
1.89984e-07
1.94624e-07
1.9678e-07
1.97407e-07
1.96835e-07
1.953e-07
1.92832e-07
1.89365e-07
1.84773e-07
1.78778e-07
1.71492e-07
1.62791e-07
1.53726e-07
1.44953e-07
1.39559e-07
1.3832e-07
1.39288e-07
1.39347e-07
1.37939e-07
1.38011e-07
1.40084e-07
1.42084e-07
1.42105e-07
1.40263e-07
1.37629e-07
1.35077e-07
1.33001e-07
1.31572e-07
1.30039e-07
1.27134e-07
1.23768e-07
1.20578e-07
1.20636e-07
1.22017e-07
1.21961e-07
1.21315e-07
1.2079e-07
1.20457e-07
1.20966e-07
1.21874e-07
1.22509e-07
1.22874e-07
1.2296e-07
1.22901e-07
1.22973e-07
1.23167e-07
1.23308e-07
1.23363e-07
1.23327e-07
1.23274e-07
1.23137e-07
1.22986e-07
1.22877e-07
1.22803e-07
1.22744e-07
1.22678e-07
1.22586e-07
1.2246e-07
1.22346e-07
1.22266e-07
1.22141e-07
1.21919e-07
1.21646e-07
1.21376e-07
1.21163e-07
1.2101e-07
1.20833e-07
1.20556e-07
1.20214e-07
1.19906e-07
1.1965e-07
1.19401e-07
1.19123e-07
1.18806e-07
1.18469e-07
1.18131e-07
1.17773e-07
1.17401e-07
1.17034e-07
1.167e-07
1.16366e-07
1.15953e-07
1.15508e-07
1.1511e-07
1.14733e-07
1.14283e-07
1.1375e-07
1.13225e-07
1.12751e-07
1.12299e-07
1.11793e-07
1.11224e-07
1.10686e-07
1.10217e-07
1.0978e-07
1.09333e-07
1.08892e-07
1.08536e-07
1.08222e-07
1.07891e-07
1.07602e-07
1.07422e-07
1.07391e-07
1.07476e-07
1.07641e-07
1.07869e-07
1.08165e-07
1.08541e-07
1.09009e-07
1.09554e-07
1.10133e-07
1.10743e-07
1.11361e-07
1.11956e-07
1.12523e-07
1.13075e-07
1.13594e-07
1.14032e-07
1.14378e-07
1.14638e-07
1.14846e-07
1.1502e-07
1.15154e-07
1.15226e-07
1.15218e-07
1.15153e-07
1.15067e-07
1.14958e-07
1.14781e-07
1.14529e-07
1.14226e-07
1.1391e-07
1.13614e-07
1.13319e-07
1.12986e-07
1.12602e-07
1.12179e-07
1.11742e-07
1.11315e-07
1.10897e-07
1.10463e-07
1.10003e-07
1.09521e-07
1.09025e-07
1.08536e-07
1.08065e-07
1.07601e-07
1.07126e-07
1.06637e-07
1.06139e-07
1.05638e-07
1.05146e-07
1.04662e-07
1.04175e-07
1.03678e-07
1.03176e-07
1.02673e-07
1.02162e-07
1.01636e-07
1.01101e-07
1.00566e-07
1.00041e-07
9.95166e-08
9.89735e-08
9.84135e-08
9.78525e-08
9.72967e-08
9.67409e-08
9.61784e-08
9.56082e-08
9.50311e-08
9.44469e-08
9.38596e-08
9.32712e-08
9.26807e-08
9.20825e-08
9.14711e-08
9.08497e-08
9.02284e-08
8.96132e-08
8.90014e-08
8.83796e-08
8.77378e-08
8.70775e-08
8.64124e-08
8.57531e-08
8.51001e-08
8.44446e-08
8.37735e-08
8.30824e-08
8.23803e-08
8.16732e-08
8.09589e-08
8.02339e-08
7.95003e-08
7.87665e-08
7.80315e-08
7.72801e-08
7.65052e-08
7.57169e-08
7.49232e-08
7.4126e-08
7.33238e-08
7.25124e-08
7.16837e-08
7.08308e-08
6.9961e-08
6.90797e-08
6.819e-08
6.72929e-08
6.63767e-08
6.54313e-08
6.44688e-08
6.34877e-08
6.24846e-08
6.14666e-08
6.04214e-08
5.93426e-08
5.82276e-08
5.7056e-08
5.58175e-08
5.45931e-08
5.34063e-08
5.22642e-08
5.11713e-08
5.01375e-08
4.9159e-08
4.82313e-08
4.73548e-08
4.65373e-08
4.57841e-08
4.50893e-08
4.44493e-08
4.38667e-08
4.33423e-08
4.28786e-08
4.24728e-08
4.21214e-08
4.18283e-08
4.15965e-08
4.14232e-08
4.12995e-08
4.12193e-08
4.11831e-08
4.11881e-08
4.12317e-08
4.1312e-08
4.14275e-08
4.1578e-08
4.17562e-08
4.19524e-08
4.21567e-08
4.23619e-08
4.25634e-08
4.27559e-08
4.29323e-08
4.30864e-08
4.32165e-08
4.33231e-08
4.34045e-08
4.34592e-08
4.34887e-08
4.34955e-08
4.34805e-08
4.34435e-08
4.33841e-08
4.33022e-08
4.32e-08
4.30804e-08
4.29424e-08
4.27857e-08
4.26126e-08
4.24247e-08
4.22222e-08
4.20056e-08
4.17764e-08
4.15356e-08
4.12839e-08
4.1023e-08
4.07531e-08
4.04752e-08
4.01895e-08
3.98977e-08
3.96006e-08
3.92993e-08
3.89938e-08
3.86843e-08
3.83716e-08
3.80572e-08
3.77418e-08
3.74256e-08
3.71088e-08
3.67923e-08
3.64766e-08
3.61618e-08
3.58475e-08
3.55347e-08
3.52243e-08
3.49168e-08
3.46122e-08
3.43105e-08
3.40121e-08
3.37163e-08
3.34244e-08
3.31367e-08
3.28534e-08
3.25724e-08
3.22962e-08
3.20241e-08
3.17574e-08
3.14936e-08
3.1236e-08
3.0981e-08
3.07307e-08
3.04819e-08
3.02389e-08
2.99983e-08
2.97655e-08
2.95336e-08
2.93084e-08
2.90861e-08
2.88668e-08
2.86578e-08
2.8448e-08
2.82493e-08
2.8042e-08
2.7841e-08
2.76332e-08
2.7422e-08
2.72211e-08
2.70105e-08
2.67973e-08
2.65886e-08
2.63493e-08
2.61011e-08
2.5914e-08
2.5672e-08
2.54636e-08
2.52788e-08
2.48422e-08
2.4487e-08
2.44319e-08
2.3949e-08
2.40968e-08
2.38626e-08
2.49377e-08
2.53893e-08
2.58481e-08
2.59683e-08
2.60753e-08
2.60114e-08
2.59646e-08
2.58505e-08
2.57671e-08
2.56343e-08
2.55027e-08
2.53805e-08
2.51158e-08
2.48798e-08
2.47807e-08
2.4479e-08
2.44361e-08
2.41708e-08
2.43567e-08
2.44134e-08
2.43624e-08
2.4306e-08
2.41912e-08
2.40714e-08
2.39391e-08
2.38052e-08
2.36649e-08
2.34766e-08
2.32847e-08
2.31406e-08
2.29281e-08
2.27988e-08
2.26152e-08
2.21049e-08
2.17347e-08
2.16786e-08
2.10786e-08
2.16586e-08
2.17351e-08
2.39545e-08
2.63778e-08
2.86743e-08
3.06313e-08
3.21982e-08
3.34212e-08
3.43668e-08
3.51009e-08
3.56617e-08
3.60851e-08
3.64028e-08
3.66509e-08
3.68434e-08
3.69867e-08
3.70976e-08
3.71794e-08
3.72329e-08
3.72722e-08
3.72956e-08
3.73031e-08
3.72958e-08
3.72838e-08
3.72641e-08
3.72346e-08
3.71974e-08
3.71544e-08
3.71065e-08
3.70537e-08
3.6996e-08
3.69337e-08
3.68661e-08
3.67941e-08
3.67146e-08
3.66296e-08
3.65405e-08
3.64473e-08
3.63502e-08
3.625e-08
3.61472e-08
3.60425e-08
3.59365e-08
3.58298e-08
3.57229e-08
3.56162e-08
3.55097e-08
3.5404e-08
3.52983e-08
3.51922e-08
3.50852e-08
3.49767e-08
3.48663e-08
3.4754e-08
3.46399e-08
3.45244e-08
3.44085e-08
3.42929e-08
3.41779e-08
3.40629e-08
3.39474e-08
3.38313e-08
3.37155e-08
3.36016e-08
3.34903e-08
3.3381e-08
3.32724e-08
3.3164e-08
3.30568e-08
3.29519e-08
3.28488e-08
3.27456e-08
3.26418e-08
3.25381e-08
3.24354e-08
3.23336e-08
3.22314e-08
3.21353e-08
3.20149e-08
3.19966e-08
3.16577e-08
3.14846e-08
2.95199e-08
1.80032e-08
1.75528e-08
1.80675e-08
1.92943e-08
2.06242e-08
2.24508e-08
2.50976e-08
2.90269e-08
3.46475e-08
4.22425e-08
5.16322e-08
6.31667e-08
7.67674e-08
9.18518e-08
1.07418e-07
1.21535e-07
1.31784e-07
1.39072e-07
1.4493e-07
1.49453e-07
1.5127e-07
1.45772e-07
1.29798e-07
1.09026e-07
8.95444e-08
7.34947e-08
6.11128e-08
5.34468e-08
4.95633e-08
4.78112e-08
4.70304e-08
4.61048e-08
4.47016e-08
4.32425e-08
4.23226e-08
4.16514e-08
4.02802e-08
3.82084e-08
3.67174e-08
3.62378e-08
3.63279e-08
3.70693e-08
3.76885e-08
3.72341e-08
3.58095e-08
3.43269e-08
3.36468e-08
3.32887e-08
3.31049e-08
3.29167e-08
3.25202e-08
3.18492e-08
3.11963e-08
3.06011e-08
3.01458e-08
2.9821e-08
2.96156e-08
2.95868e-08
2.98147e-08
3.03326e-08
3.10607e-08
3.17424e-08
3.21529e-08
3.2253e-08
3.21881e-08
3.21274e-08
3.19829e-08
3.15849e-08
3.10311e-08
3.0682e-08
3.10503e-08
3.25882e-08
3.56982e-08
4.05972e-08
4.70667e-08
5.39608e-08
5.99375e-08
6.52503e-08
7.07121e-08
7.67033e-08
8.28806e-08
9.21602e-08
1.02895e-07
1.08262e-07
1.0147e-07
1.02791e-07
1.03305e-07
1.00219e-07
8.35255e-08
5.702e-08
3.73188e-08
2.63925e-08
2.31963e-08
2.37116e-08
2.67585e-08
3.19531e-08
3.92596e-08
4.81065e-08
5.69183e-08
6.06522e-08
5.78139e-08
5.04416e-08
4.04223e-08
3.20587e-08
2.70225e-08
2.28746e-08
1.99572e-08
1.78919e-08
1.61762e-08
1.52838e-08
1.48698e-08
1.48129e-08
1.52686e-08
1.64452e-08
1.83139e-08
2.04388e-08
2.15938e-08
2.11314e-08
1.97254e-08
1.83464e-08
1.73785e-08
1.6059e-08
1.61196e-08
1.55099e-08
1.48868e-08
1.48082e-08
1.46104e-08
1.44273e-08
1.44071e-08
1.43506e-08
1.43262e-08
1.43661e-08
1.43789e-08
1.44147e-08
1.44639e-08
1.45173e-08
1.45716e-08
1.46297e-08
1.4691e-08
1.47504e-08
1.48059e-08
1.4857e-08
1.49065e-08
1.49582e-08
1.50115e-08
1.50614e-08
1.51086e-08
1.51597e-08
1.52171e-08
1.52774e-08
1.53347e-08
1.53854e-08
1.54319e-08
1.54821e-08
1.55391e-08
1.55976e-08
1.56525e-08
1.57046e-08
1.57555e-08
1.58026e-08
1.58435e-08
1.58805e-08
1.59206e-08
1.59639e-08
1.60021e-08
1.60306e-08
1.6056e-08
1.60876e-08
1.61188e-08
1.61367e-08
1.61424e-08
1.61508e-08
1.61715e-08
1.61939e-08
1.61991e-08
1.61846e-08
1.61677e-08
1.61646e-08
1.6168e-08
1.61617e-08
1.61412e-08
1.61188e-08
1.61067e-08
1.60803e-08
1.60219e-08
1.59586e-08
1.59171e-08
1.58915e-08
1.58588e-08
1.58048e-08
1.57336e-08
1.56577e-08
1.55959e-08
1.55452e-08
1.54926e-08
1.54291e-08
1.53481e-08
1.52505e-08
1.51523e-08
1.5075e-08
1.50221e-08
1.49713e-08
1.48981e-08
1.47973e-08
1.46904e-08
1.46013e-08
1.45307e-08
1.44641e-08
1.4383e-08
1.42856e-08
1.41962e-08
1.41324e-08
1.40711e-08
1.39802e-08
1.38675e-08
1.37631e-08
1.36918e-08
1.36459e-08
1.35924e-08
1.35079e-08
1.33986e-08
1.32936e-08
1.32151e-08
1.31667e-08
1.31228e-08
1.30616e-08
1.29846e-08
1.29002e-08
1.28224e-08
1.27694e-08
1.27394e-08
1.27043e-08
1.26527e-08
1.25956e-08
1.2539e-08
1.24924e-08
1.2464e-08
1.24477e-08
1.24268e-08
1.24002e-08
1.23816e-08
1.2368e-08
1.23476e-08
1.2319e-08
1.22961e-08
1.22876e-08
1.23044e-08
1.23175e-08
1.22911e-08
1.22589e-08
1.22458e-08
1.2248e-08
1.22568e-08
1.22548e-08
1.224e-08
1.22231e-08
1.22052e-08
1.21918e-08
1.21847e-08
1.21736e-08
1.21532e-08
1.21228e-08
1.2092e-08
1.2075e-08
1.20708e-08
1.20667e-08
1.20454e-08
1.19971e-08
1.19529e-08
1.19238e-08
1.19028e-08
1.18917e-08
1.18805e-08
1.18523e-08
1.18149e-08
1.17828e-08
1.17545e-08
1.17267e-08
1.16974e-08
1.16699e-08
1.16547e-08
1.16446e-08
1.16171e-08
1.15788e-08
1.15472e-08
1.15231e-08
1.15016e-08
1.14843e-08
1.14697e-08
1.14475e-08
1.14174e-08
1.13882e-08
1.13637e-08
1.13425e-08
1.13272e-08
1.13091e-08
1.12816e-08
1.12556e-08
1.12303e-08
1.1204e-08
1.11848e-08
1.11637e-08
1.11352e-08
1.11073e-08
1.10801e-08
1.10562e-08
1.10295e-08
1.10007e-08
1.09721e-08
1.09463e-08
1.09258e-08
1.09051e-08
1.08814e-08
1.08552e-08
1.08318e-08
1.08135e-08
1.07957e-08
1.07759e-08
1.07575e-08
1.07405e-08
1.07264e-08
1.07134e-08
1.0698e-08
1.0683e-08
1.06703e-08
1.06601e-08
1.06501e-08
1.06381e-08
1.06264e-08
1.06168e-08
1.06098e-08
1.06042e-08
1.05956e-08
1.05842e-08
1.05723e-08
1.05613e-08
1.05514e-08
1.05417e-08
1.05317e-08
1.05195e-08
1.05065e-08
1.0494e-08
1.04823e-08
1.04721e-08
1.04615e-08
1.04488e-08
1.04359e-08
1.04242e-08
1.04144e-08
1.04053e-08
1.03957e-08
1.03856e-08
1.03764e-08
1.03692e-08
1.03624e-08
1.03551e-08
1.03486e-08
1.03432e-08
1.03385e-08
1.03341e-08
1.03303e-08
1.03271e-08
1.03245e-08
1.03223e-08
1.03205e-08
1.03187e-08
1.03173e-08
1.03163e-08
1.03155e-08
1.03148e-08
1.03138e-08
1.03123e-08
1.03105e-08
1.03089e-08
1.0307e-08
1.03048e-08
1.03024e-08
1.02999e-08
1.02974e-08
1.02946e-08
1.02913e-08
1.02876e-08
1.02838e-08
1.02801e-08
1.02764e-08
1.02725e-08
1.02683e-08
1.0264e-08
1.02593e-08
1.02547e-08
1.02506e-08
1.02459e-08
1.02409e-08
1.02361e-08
1.02314e-08
1.02266e-08
1.02218e-08
1.02172e-08
1.02126e-08
1.02076e-08
1.02026e-08
1.01974e-08
1.01925e-08
1.01877e-08
1.01828e-08
1.0178e-08
1.01725e-08
1.0167e-08
1.01616e-08
1.01567e-08
1.01518e-08
1.01474e-08
1.01432e-08
1.01381e-08
1.01335e-08
1.01309e-08
1.01277e-08
1.0126e-08
1.01281e-08
1.01227e-08
1.01227e-08
1.01325e-08
1.01471e-08
1.01816e-08
1.02205e-08
1.01831e-08
1.02882e-08
1.02983e-08
1.02573e-08
1.01887e-08
1.01705e-08
1.01748e-08
1.01341e-08
1.0116e-08
1.0096e-08
1.00799e-08
1.00703e-08
1.00653e-08
1.00594e-08
1.00742e-08
1.01056e-08
1.01434e-08
1.0188e-08
1.01584e-08
1.02121e-08
1.02201e-08
1.01957e-08
1.01639e-08
1.01484e-08
1.01479e-08
1.01093e-08
1.00901e-08
1.00725e-08
1.00722e-08
1.00698e-08
1.00769e-08
1.00696e-08
1.00722e-08
1.00654e-08
1.01623e-08
1.0194e-08
1.02759e-08
1.04377e-08
1.04888e-08
1.04468e-08
1.0493e-08
1.05104e-08
1.05445e-08
1.0583e-08
1.06466e-08
1.06805e-08
1.06351e-08
1.0539e-08
1.04389e-08
1.03541e-08
1.0292e-08
1.02476e-08
1.02148e-08
1.01909e-08
1.01735e-08
1.01609e-08
1.01517e-08
1.01457e-08
1.01424e-08
1.01408e-08
1.01406e-08
1.01422e-08
1.01442e-08
1.01462e-08
1.01486e-08
1.01526e-08
1.01569e-08
1.01608e-08
1.01644e-08
1.01678e-08
1.01713e-08
1.01748e-08
1.01783e-08
1.0182e-08
1.01858e-08
1.01898e-08
1.01892e-08
1.01881e-08
1.01885e-08
1.01899e-08
1.01918e-08
1.01942e-08
1.01964e-08
1.01981e-08
1.01999e-08
1.0202e-08
1.02042e-08
1.0206e-08
1.02054e-08
1.02105e-08
1.02156e-08
1.02175e-08
1.02176e-08
1.02172e-08
1.02162e-08
1.02152e-08
1.02145e-08
1.02144e-08
1.02152e-08
1.02165e-08
1.02173e-08
1.02169e-08
1.02156e-08
1.02145e-08
1.02151e-08
1.02169e-08
1.02186e-08
1.02182e-08
1.02161e-08
1.02148e-08
1.02155e-08
1.02168e-08
1.02158e-08
1.02133e-08
1.02119e-08
1.02137e-08
1.02088e-08
1.02034e-08
1.01966e-08
1.02104e-08
1.0206e-08
1.02645e-08
1.03155e-08
1.03887e-08
1.03536e-08
1.34998e-08
1.33166e-08
1.36152e-08
1.40754e-08
1.48893e-08
1.63106e-08
1.86109e-08
2.21226e-08
2.74208e-08
3.5331e-08
4.5485e-08
5.75161e-08
7.05389e-08
8.32914e-08
9.4363e-08
1.02015e-07
1.08741e-07
1.13564e-07
1.12681e-07
1.07782e-07
9.91933e-08
8.52107e-08
6.96597e-08
5.61696e-08
4.55418e-08
3.7415e-08
3.16071e-08
2.77522e-08
2.52015e-08
2.35421e-08
2.25287e-08
2.18887e-08
2.13168e-08
2.06959e-08
2.005e-08
1.9438e-08
1.88318e-08
1.81946e-08
1.76962e-08
1.73844e-08
1.72496e-08
1.72668e-08
1.72803e-08
1.71238e-08
1.6802e-08
1.64135e-08
1.61097e-08
1.59318e-08
1.58667e-08
1.58046e-08
1.56776e-08
1.5478e-08
1.52444e-08
1.50021e-08
1.47907e-08
1.46337e-08
1.45283e-08
1.44836e-08
1.45222e-08
1.46504e-08
1.48406e-08
1.50203e-08
1.51492e-08
1.52796e-08
1.54574e-08
1.56683e-08
1.58513e-08
1.59421e-08
1.59578e-08
1.60005e-08
1.61907e-08
1.66693e-08
1.75741e-08
1.89921e-08
2.09373e-08
2.33385e-08
2.60395e-08
2.89124e-08
3.19507e-08
3.53053e-08
3.93187e-08
4.42464e-08
5.03925e-08
5.78333e-08
6.84244e-08
7.91404e-08
8.19966e-08
7.40372e-08
5.99696e-08
4.98769e-08
4.12292e-08
3.13435e-08
2.3222e-08
1.81456e-08
1.55365e-08
1.50499e-08
1.64448e-08
1.97061e-08
2.43997e-08
2.85557e-08
3.01125e-08
2.90908e-08
2.62412e-08
2.25782e-08
1.88194e-08
1.58277e-08
1.38298e-08
1.25762e-08
1.17531e-08
1.13077e-08
1.10193e-08
1.08185e-08
1.07159e-08
1.06846e-08
1.07931e-08
1.10086e-08
1.12755e-08
1.14613e-08
1.14995e-08
1.1422e-08
1.1258e-08
1.10662e-08
1.09122e-08
1.08051e-08
1.0695e-08
1.06445e-08
1.05742e-08
1.05161e-08
1.04949e-08
1.04838e-08
1.04763e-08
1.04751e-08
1.04821e-08
1.04826e-08
1.04832e-08
1.04876e-08
1.04944e-08
1.05042e-08
1.05128e-08
1.05228e-08
1.05312e-08
1.05391e-08
1.05473e-08
1.05555e-08
1.05631e-08
1.057e-08
1.05764e-08
1.05834e-08
1.05917e-08
1.06002e-08
1.06073e-08
1.06126e-08
1.06178e-08
1.06243e-08
1.06322e-08
1.06401e-08
1.06467e-08
1.06524e-08
1.06584e-08
1.06648e-08
1.06706e-08
1.06753e-08
1.068e-08
1.06849e-08
1.06893e-08
1.06919e-08
1.06937e-08
1.06967e-08
1.07e-08
1.07008e-08
1.06989e-08
1.06974e-08
1.0698e-08
1.0699e-08
1.06968e-08
1.0691e-08
1.06849e-08
1.06805e-08
1.06764e-08
1.06707e-08
1.06635e-08
1.06568e-08
1.06503e-08
1.06406e-08
1.06263e-08
1.06114e-08
1.05994e-08
1.05901e-08
1.05809e-08
1.05696e-08
1.05556e-08
1.05401e-08
1.05257e-08
1.05128e-08
1.0501e-08
1.04893e-08
1.0476e-08
1.04602e-08
1.04439e-08
1.04304e-08
1.04205e-08
1.0411e-08
1.0399e-08
1.03845e-08
1.03701e-08
1.03578e-08
1.03475e-08
1.03374e-08
1.03261e-08
1.0314e-08
1.03034e-08
1.02951e-08
1.02866e-08
1.02757e-08
1.02636e-08
1.02527e-08
1.02448e-08
1.0239e-08
1.0233e-08
1.02248e-08
1.02149e-08
1.02055e-08
1.01983e-08
1.01933e-08
1.01891e-08
1.0184e-08
1.01779e-08
1.01716e-08
1.01658e-08
1.01616e-08
1.01589e-08
1.01562e-08
1.01527e-08
1.01487e-08
1.01449e-08
1.01419e-08
1.01402e-08
1.01393e-08
1.01383e-08
1.01367e-08
1.01354e-08
1.01342e-08
1.01329e-08
1.01316e-08
1.01307e-08
1.01304e-08
1.01313e-08
1.01318e-08
1.01306e-08
1.01291e-08
1.01287e-08
1.01291e-08
1.01296e-08
1.01295e-08
1.01288e-08
1.01282e-08
1.01276e-08
1.01273e-08
1.01272e-08
1.01265e-08
1.01252e-08
1.01237e-08
1.01224e-08
1.01217e-08
1.01216e-08
1.01214e-08
1.01203e-08
1.01179e-08
1.01156e-08
1.01141e-08
1.01132e-08
1.01126e-08
1.0112e-08
1.01107e-08
1.0109e-08
1.01074e-08
1.0106e-08
1.01046e-08
1.01031e-08
1.01018e-08
1.01011e-08
1.01007e-08
1.00994e-08
1.00975e-08
1.00959e-08
1.00948e-08
1.00938e-08
1.0093e-08
1.00922e-08
1.00912e-08
1.00898e-08
1.00884e-08
1.00874e-08
1.00865e-08
1.00857e-08
1.00848e-08
1.00836e-08
1.00826e-08
1.00815e-08
1.00803e-08
1.00793e-08
1.00784e-08
1.00773e-08
1.00762e-08
1.0075e-08
1.00739e-08
1.00728e-08
1.00716e-08
1.00705e-08
1.00694e-08
1.00685e-08
1.00676e-08
1.00665e-08
1.00654e-08
1.00643e-08
1.00634e-08
1.00626e-08
1.00617e-08
1.00609e-08
1.00602e-08
1.00595e-08
1.00588e-08
1.0058e-08
1.00574e-08
1.00569e-08
1.00564e-08
1.00559e-08
1.00554e-08
1.00549e-08
1.00544e-08
1.0054e-08
1.00536e-08
1.00533e-08
1.00528e-08
1.00522e-08
1.00518e-08
1.00513e-08
1.00509e-08
1.00504e-08
1.005e-08
1.00495e-08
1.00491e-08
1.00487e-08
1.00483e-08
1.0048e-08
1.00476e-08
1.00472e-08
1.00469e-08
1.00466e-08
1.00464e-08
1.00461e-08
1.00458e-08
1.00456e-08
1.00454e-08
1.00452e-08
1.0045e-08
1.00448e-08
1.00447e-08
1.00445e-08
1.00444e-08
1.00442e-08
1.00441e-08
1.00439e-08
1.00438e-08
1.00436e-08
1.00435e-08
1.00434e-08
1.00432e-08
1.00431e-08
1.0043e-08
1.00429e-08
1.00428e-08
1.00426e-08
1.00425e-08
1.00425e-08
1.00423e-08
1.00422e-08
1.00421e-08
1.00419e-08
1.00418e-08
1.00417e-08
1.00415e-08
1.00413e-08
1.00411e-08
1.0041e-08
1.00408e-08
1.00406e-08
1.00405e-08
1.00402e-08
1.00401e-08
1.00399e-08
1.00397e-08
1.00395e-08
1.00393e-08
1.00391e-08
1.00389e-08
1.00387e-08
1.00385e-08
1.00383e-08
1.00381e-08
1.00379e-08
1.00376e-08
1.00374e-08
1.00372e-08
1.0037e-08
1.00368e-08
1.00365e-08
1.00363e-08
1.00363e-08
1.00359e-08
1.00358e-08
1.00355e-08
1.00357e-08
1.00359e-08
1.0036e-08
1.00362e-08
1.00361e-08
1.0035e-08
1.00355e-08
1.00363e-08
1.00367e-08
1.0037e-08
1.0036e-08
1.00357e-08
1.00354e-08
1.00356e-08
1.00365e-08
1.00375e-08
1.00377e-08
1.00384e-08
1.00387e-08
1.00377e-08
1.00362e-08
1.00351e-08
1.00334e-08
1.00342e-08
1.00339e-08
1.00338e-08
1.00339e-08
1.00339e-08
1.00336e-08
1.00334e-08
1.00334e-08
1.00337e-08
1.00342e-08
1.00347e-08
1.00348e-08
1.0035e-08
1.00351e-08
1.00346e-08
1.00339e-08
1.00333e-08
1.00328e-08
1.00326e-08
1.00323e-08
1.0032e-08
1.00324e-08
1.00327e-08
1.00334e-08
1.00367e-08
1.004e-08
1.00413e-08
1.00462e-08
1.00468e-08
1.00465e-08
1.00484e-08
1.00536e-08
1.00607e-08
1.00702e-08
1.00766e-08
1.0074e-08
1.00648e-08
1.00545e-08
1.00463e-08
1.00405e-08
1.00367e-08
1.00342e-08
1.00324e-08
1.0031e-08
1.003e-08
1.00292e-08
1.00286e-08
1.00281e-08
1.00277e-08
1.00275e-08
1.00275e-08
1.00276e-08
1.00277e-08
1.00279e-08
1.00281e-08
1.00283e-08
1.00285e-08
1.00286e-08
1.00287e-08
1.00288e-08
1.00289e-08
1.0029e-08
1.00291e-08
1.00292e-08
1.00293e-08
1.00292e-08
1.0029e-08
1.00289e-08
1.0029e-08
1.00291e-08
1.00292e-08
1.00294e-08
1.00295e-08
1.00297e-08
1.00299e-08
1.003e-08
1.00301e-08
1.00302e-08
1.00304e-08
1.00305e-08
1.00305e-08
1.00305e-08
1.00306e-08
1.00306e-08
1.00307e-08
1.00307e-08
1.00307e-08
1.00308e-08
1.00308e-08
1.00308e-08
1.00307e-08
1.00306e-08
1.00304e-08
1.00303e-08
1.00303e-08
1.00304e-08
1.00306e-08
1.00305e-08
1.00304e-08
1.00303e-08
1.00303e-08
1.00304e-08
1.00304e-08
1.00301e-08
1.003e-08
1.003e-08
1.00299e-08
1.00297e-08
1.00296e-08
1.00298e-08
1.00302e-08
1.00316e-08
1.00334e-08
1.00355e-08
1.00328e-08
1.1397e-08
1.1321e-08
1.14094e-08
1.15617e-08
1.18345e-08
1.2365e-08
1.32524e-08
1.46114e-08
1.66203e-08
1.93678e-08
2.27277e-08
2.64123e-08
3.0284e-08
3.43827e-08
3.90215e-08
4.43368e-08
4.88804e-08
5.15648e-08
5.1388e-08
4.76211e-08
4.144e-08
3.41587e-08
2.77975e-08
2.32291e-08
2.00364e-08
1.77768e-08
1.62108e-08
1.51522e-08
1.44726e-08
1.40562e-08
1.37993e-08
1.36458e-08
1.35153e-08
1.33344e-08
1.30985e-08
1.28292e-08
1.25762e-08
1.23766e-08
1.22361e-08
1.2127e-08
1.20483e-08
1.20066e-08
1.19956e-08
1.19457e-08
1.18662e-08
1.17864e-08
1.17133e-08
1.16584e-08
1.16271e-08
1.16163e-08
1.15844e-08
1.15368e-08
1.14757e-08
1.14048e-08
1.13323e-08
1.12671e-08
1.12161e-08
1.11853e-08
1.1178e-08
1.11909e-08
1.12172e-08
1.12514e-08
1.12941e-08
1.13546e-08
1.14414e-08
1.1548e-08
1.16543e-08
1.1743e-08
1.18093e-08
1.18653e-08
1.19404e-08
1.20742e-08
1.23044e-08
1.26597e-08
1.3161e-08
1.38339e-08
1.47018e-08
1.58149e-08
1.72719e-08
1.92078e-08
2.1712e-08
2.48456e-08
2.86914e-08
3.33151e-08
3.83886e-08
4.33942e-08
4.7288e-08
5.04034e-08
5.03363e-08
4.71144e-08
3.98159e-08
3.11804e-08
2.5951e-08
2.19392e-08
1.79314e-08
1.53177e-08
1.38847e-08
1.34583e-08
1.39355e-08
1.50373e-08
1.61415e-08
1.69023e-08
1.70027e-08
1.62811e-08
1.52395e-08
1.39796e-08
1.29931e-08
1.23293e-08
1.18211e-08
1.14904e-08
1.11975e-08
1.09306e-08
1.06875e-08
1.05062e-08
1.03705e-08
1.02783e-08
1.02218e-08
1.0203e-08
1.02031e-08
1.02103e-08
1.02142e-08
1.02105e-08
1.02036e-08
1.01948e-08
1.01852e-08
1.01758e-08
1.01643e-08
1.01472e-08
1.01352e-08
1.01234e-08
1.01138e-08
1.01082e-08
1.01038e-08
1.0101e-08
1.00994e-08
1.00989e-08
1.00989e-08
1.00993e-08
1.01e-08
1.01007e-08
1.01014e-08
1.01021e-08
1.01028e-08
1.01036e-08
1.01045e-08
1.01052e-08
1.0106e-08
1.01068e-08
1.01079e-08
1.01089e-08
1.01097e-08
1.01105e-08
1.01112e-08
1.01121e-08
1.01132e-08
1.01142e-08
1.0115e-08
1.01158e-08
1.01166e-08
1.01175e-08
1.01183e-08
1.01189e-08
1.01195e-08
1.01201e-08
1.01206e-08
1.01209e-08
1.01211e-08
1.01214e-08
1.01216e-08
1.01216e-08
1.01212e-08
1.01208e-08
1.01206e-08
1.01204e-08
1.01199e-08
1.01189e-08
1.01178e-08
1.01168e-08
1.01158e-08
1.01147e-08
1.01135e-08
1.01123e-08
1.0111e-08
1.01093e-08
1.01071e-08
1.01048e-08
1.01028e-08
1.01012e-08
1.00996e-08
1.00979e-08
1.0096e-08
1.00938e-08
1.00916e-08
1.00895e-08
1.00877e-08
1.0086e-08
1.00843e-08
1.00823e-08
1.00803e-08
1.00785e-08
1.0077e-08
1.00757e-08
1.00742e-08
1.00726e-08
1.00709e-08
1.00695e-08
1.00681e-08
1.00669e-08
1.00656e-08
1.00643e-08
1.00632e-08
1.00621e-08
1.00611e-08
1.006e-08
1.00588e-08
1.00577e-08
1.00568e-08
1.00561e-08
1.00554e-08
1.00546e-08
1.00537e-08
1.00529e-08
1.00522e-08
1.00516e-08
1.00511e-08
1.00506e-08
1.005e-08
1.00495e-08
1.0049e-08
1.00486e-08
1.00483e-08
1.00479e-08
1.00476e-08
1.00473e-08
1.00469e-08
1.00467e-08
1.00465e-08
1.00463e-08
1.00461e-08
1.00459e-08
1.00458e-08
1.00456e-08
1.00454e-08
1.00452e-08
1.00451e-08
1.0045e-08
1.00449e-08
1.00449e-08
1.00447e-08
1.00446e-08
1.00445e-08
1.00445e-08
1.00444e-08
1.00444e-08
1.00443e-08
1.00442e-08
1.00441e-08
1.00441e-08
1.0044e-08
1.00439e-08
1.00438e-08
1.00436e-08
1.00435e-08
1.00434e-08
1.00434e-08
1.00433e-08
1.00432e-08
1.0043e-08
1.00429e-08
1.00427e-08
1.00426e-08
1.00425e-08
1.00424e-08
1.00423e-08
1.00421e-08
1.0042e-08
1.00419e-08
1.00417e-08
1.00416e-08
1.00414e-08
1.00413e-08
1.00412e-08
1.00411e-08
1.0041e-08
1.00408e-08
1.00407e-08
1.00406e-08
1.00405e-08
1.00404e-08
1.00403e-08
1.00401e-08
1.004e-08
1.00399e-08
1.00398e-08
1.00396e-08
1.00395e-08
1.00394e-08
1.00392e-08
1.00391e-08
1.0039e-08
1.00388e-08
1.00387e-08
1.00386e-08
1.00384e-08
1.00383e-08
1.00381e-08
1.0038e-08
1.00378e-08
1.00378e-08
1.00376e-08
1.00375e-08
1.00373e-08
1.00372e-08
1.00371e-08
1.0037e-08
1.00368e-08
1.00366e-08
1.00365e-08
1.00365e-08
1.00363e-08
1.00362e-08
1.00361e-08
1.00359e-08
1.00358e-08
1.00357e-08
1.00356e-08
1.00355e-08
1.00354e-08
1.00353e-08
1.00352e-08
1.0035e-08
1.00349e-08
1.00348e-08
1.00347e-08
1.00346e-08
1.00345e-08
1.00344e-08
1.00343e-08
1.00342e-08
1.00341e-08
1.0034e-08
1.00339e-08
1.00338e-08
1.00337e-08
1.00337e-08
1.00336e-08
1.00334e-08
1.00333e-08
1.00333e-08
1.00332e-08
1.00331e-08
1.0033e-08
1.00329e-08
1.00328e-08
1.00327e-08
1.00327e-08
1.00326e-08
1.00325e-08
1.00324e-08
1.00324e-08
1.00323e-08
1.00322e-08
1.00322e-08
1.00321e-08
1.0032e-08
1.00319e-08
1.00319e-08
1.00318e-08
1.00318e-08
1.00317e-08
1.00316e-08
1.00315e-08
1.00314e-08
1.00313e-08
1.00313e-08
1.00312e-08
1.00312e-08
1.0031e-08
1.00309e-08
1.00309e-08
1.00308e-08
1.00307e-08
1.00306e-08
1.00305e-08
1.00305e-08
1.00304e-08
1.00303e-08
1.00302e-08
1.00302e-08
1.00301e-08
1.003e-08
1.00299e-08
1.00298e-08
1.00298e-08
1.00297e-08
1.00297e-08
1.00296e-08
1.00295e-08
1.00295e-08
1.00294e-08
1.00292e-08
1.00292e-08
1.00292e-08
1.0029e-08
1.0029e-08
1.00289e-08
1.00287e-08
1.00286e-08
1.00288e-08
1.00288e-08
1.00289e-08
1.00288e-08
1.0029e-08
1.0029e-08
1.00287e-08
1.00293e-08
1.00294e-08
1.00294e-08
1.00295e-08
1.00293e-08
1.00292e-08
1.00291e-08
1.00291e-08
1.00291e-08
1.00291e-08
1.00291e-08
1.0029e-08
1.0029e-08
1.00287e-08
1.00277e-08
1.00282e-08
1.00285e-08
1.00285e-08
1.00285e-08
1.00284e-08
1.00283e-08
1.00283e-08
1.00282e-08
1.00282e-08
1.00282e-08
1.00281e-08
1.0028e-08
1.00279e-08
1.00279e-08
1.00278e-08
1.00277e-08
1.00276e-08
1.00275e-08
1.00273e-08
1.00272e-08
1.00273e-08
1.00273e-08
1.00279e-08
1.00277e-08
1.0027e-08
1.00276e-08
1.00283e-08
1.0031e-08
1.00333e-08
1.00368e-08
1.00383e-08
1.00371e-08
1.00352e-08
1.00337e-08
1.00327e-08
1.0032e-08
1.00315e-08
1.0031e-08
1.00306e-08
1.00302e-08
1.00296e-08
1.00288e-08
1.0028e-08
1.00272e-08
1.00265e-08
1.00259e-08
1.00254e-08
1.00249e-08
1.00245e-08
1.00241e-08
1.00238e-08
1.00235e-08
1.00232e-08
1.0023e-08
1.00229e-08
1.00228e-08
1.00228e-08
1.00229e-08
1.00229e-08
1.00229e-08
1.00229e-08
1.00229e-08
1.00229e-08
1.0023e-08
1.00231e-08
1.00232e-08
1.00233e-08
1.00234e-08
1.00235e-08
1.00235e-08
1.00235e-08
1.00235e-08
1.00234e-08
1.00234e-08
1.00234e-08
1.00234e-08
1.00235e-08
1.00235e-08
1.00236e-08
1.00237e-08
1.00238e-08
1.00238e-08
1.00238e-08
1.00238e-08
1.00238e-08
1.00238e-08
1.00238e-08
1.00237e-08
1.00237e-08
1.00237e-08
1.00238e-08
1.00238e-08
1.00238e-08
1.00238e-08
1.00237e-08
1.00235e-08
1.00233e-08
1.00232e-08
1.00232e-08
1.00232e-08
1.00233e-08
1.00233e-08
1.00232e-08
1.00231e-08
1.00232e-08
1.00232e-08
1.00233e-08
1.00232e-08
1.0023e-08
1.00229e-08
1.00229e-08
1.00228e-08
1.00228e-08
1.00228e-08
1.00229e-08
1.00232e-08
1.00239e-08
1.00249e-08
1.00259e-08
1.00241e-08
1.06034e-08
1.06337e-08
1.06617e-08
1.07057e-08
1.07798e-08
1.09097e-08
1.11254e-08
1.1446e-08
1.18825e-08
1.24237e-08
1.30381e-08
1.37097e-08
1.43663e-08
1.50657e-08
1.60023e-08
1.71838e-08
1.83234e-08
1.89972e-08
1.89712e-08
1.81699e-08
1.68e-08
1.52703e-08
1.40351e-08
1.31817e-08
1.25843e-08
1.21506e-08
1.1823e-08
1.15869e-08
1.14288e-08
1.13297e-08
1.1265e-08
1.12187e-08
1.11801e-08
1.11178e-08
1.10392e-08
1.09615e-08
1.08977e-08
1.08474e-08
1.08063e-08
1.07727e-08
1.07433e-08
1.07163e-08
1.06948e-08
1.06737e-08
1.06518e-08
1.0635e-08
1.06183e-08
1.06022e-08
1.05873e-08
1.05735e-08
1.05603e-08
1.05464e-08
1.05295e-08
1.05091e-08
1.04868e-08
1.04644e-08
1.04447e-08
1.04303e-08
1.04226e-08
1.04209e-08
1.04239e-08
1.04315e-08
1.04442e-08
1.04638e-08
1.04914e-08
1.05258e-08
1.05632e-08
1.05999e-08
1.06334e-08
1.06644e-08
1.06994e-08
1.07487e-08
1.08222e-08
1.09263e-08
1.10671e-08
1.12534e-08
1.14962e-08
1.18149e-08
1.22488e-08
1.28704e-08
1.37966e-08
1.51704e-08
1.71067e-08
1.95118e-08
2.22594e-08
2.50536e-08
2.75055e-08
2.94579e-08
3.07569e-08
3.11764e-08
3.03956e-08
2.90675e-08
2.65033e-08
2.29564e-08
1.92123e-08
1.68402e-08
1.50902e-08
1.36617e-08
1.27816e-08
1.23241e-08
1.21703e-08
1.22028e-08
1.22908e-08
1.22647e-08
1.21131e-08
1.18904e-08
1.15844e-08
1.13406e-08
1.11499e-08
1.10116e-08
1.09392e-08
1.09088e-08
1.08779e-08
1.08059e-08
1.0693e-08
1.05452e-08
1.04177e-08
1.03092e-08
1.02223e-08
1.01592e-08
1.01251e-08
1.01061e-08
1.00961e-08
1.00927e-08
1.00914e-08
1.00915e-08
1.00933e-08
1.00963e-08
1.00993e-08
1.00991e-08
1.00946e-08
1.00891e-08
1.00835e-08
1.00783e-08
1.00737e-08
1.00703e-08
1.00678e-08
1.00655e-08
1.00638e-08
1.00624e-08
1.00615e-08
1.00609e-08
1.00606e-08
1.00603e-08
1.00601e-08
1.006e-08
1.00599e-08
1.00599e-08
1.00599e-08
1.00599e-08
1.006e-08
1.006e-08
1.00601e-08
1.00602e-08
1.00603e-08
1.00604e-08
1.00604e-08
1.00605e-08
1.00606e-08
1.00607e-08
1.00608e-08
1.00608e-08
1.00608e-08
1.00609e-08
1.00608e-08
1.00608e-08
1.00607e-08
1.00607e-08
1.00606e-08
1.00605e-08
1.00603e-08
1.00601e-08
1.00599e-08
1.00598e-08
1.00596e-08
1.00593e-08
1.0059e-08
1.00588e-08
1.00585e-08
1.00582e-08
1.00579e-08
1.00576e-08
1.00573e-08
1.0057e-08
1.00566e-08
1.00562e-08
1.00558e-08
1.00554e-08
1.00551e-08
1.00547e-08
1.00544e-08
1.0054e-08
1.00536e-08
1.00532e-08
1.00528e-08
1.00524e-08
1.00521e-08
1.00517e-08
1.00514e-08
1.0051e-08
1.00507e-08
1.00504e-08
1.00501e-08
1.00498e-08
1.00495e-08
1.00491e-08
1.00488e-08
1.00485e-08
1.00483e-08
1.0048e-08
1.00477e-08
1.00474e-08
1.00471e-08
1.00468e-08
1.00466e-08
1.00463e-08
1.00461e-08
1.00458e-08
1.00456e-08
1.00453e-08
1.00451e-08
1.00449e-08
1.00447e-08
1.00445e-08
1.00443e-08
1.00441e-08
1.00439e-08
1.00437e-08
1.00436e-08
1.00434e-08
1.00432e-08
1.00431e-08
1.00429e-08
1.00428e-08
1.00427e-08
1.00426e-08
1.00424e-08
1.00423e-08
1.00422e-08
1.00421e-08
1.0042e-08
1.00418e-08
1.00417e-08
1.00416e-08
1.00415e-08
1.00414e-08
1.00413e-08
1.00412e-08
1.00411e-08