/*--------------------------------*- C++ -*----------------------------------*\
| =========                 |                                                 |
| \\      /  F ield         | OpenFOAM: The Open Source CFD Toolbox           |
|  \\    /   O peration     | Version:  v2006                                 |
|   \\  /    A nd           | Website:  www.openfoam.com                      |
|    \\/     M anipulation  |                                                 |
\*---------------------------------------------------------------------------*/
FoamFile
{
    version     2.0;
    format      ascii;
    class       volScalarField;
    location    "5.9";
    object      omega;
}
// * * * * * * * * * * * * * * * * * * * * * * * * * * * * * * * * * * * * * //

dimensions      [0 0 -1 0 0 0 0];


internalField   nonuniform List<scalar> 
33000
(
0.803567
0.803611
0.803624
0.803636
0.803698
0.803816
0.804002
0.804257
0.804575
0.804954
0.8054
0.805912
0.806468
0.807008
0.807485
0.807928
0.80862
0.809942
0.812344
0.816084
0.820691
0.825008
0.828282
0.830504
0.831878
0.832634
0.833021
0.83326
0.833497
0.833777
0.834051
0.834248
0.834335
0.834319
0.83422
0.834013
0.833664
0.833179
0.832686
0.832528
0.832835
0.833332
0.83362
0.833549
0.833131
0.832506
0.832022
0.831981
0.832248
0.83249
0.832485
0.832197
0.831692
0.831196
0.830811
0.830489
0.830193
0.830023
0.830119
0.83055
0.831205
0.831716
0.831778
0.831422
0.830943
0.830595
0.830269
0.829594
0.828451
0.827044
0.825648
0.824364
0.82323
0.822179
0.821185
0.820188
0.819256
0.818635
0.818985
0.819802
0.819878
0.82044
0.820589
0.821338
0.822312
0.823186
0.823746
0.824007
0.824084
0.824015
0.823831
0.823536
0.823122
0.822572
0.821851
0.820972
0.819922
0.818826
0.817763
0.817104
0.816949
0.817067
0.817076
0.816905
0.816912
0.817164
0.817407
0.817409
0.817186
0.816867
0.816558
0.816307
0.816135
0.815949
0.815596
0.815188
0.814799
0.814806
0.814972
0.814965
0.814885
0.81482
0.81478
0.814842
0.814954
0.815032
0.815074
0.815084
0.815077
0.815086
0.81511
0.815128
0.815134
0.81513
0.815124
0.815106
0.815087
0.815074
0.815065
0.815058
0.81505
0.815039
0.815024
0.815012
0.815002
0.814987
0.814959
0.814925
0.814892
0.814867
0.814849
0.814829
0.814793
0.814751
0.814714
0.814683
0.814653
0.81462
0.814581
0.81454
0.814498
0.814454
0.814409
0.814364
0.814324
0.814284
0.814233
0.814179
0.814131
0.814085
0.814031
0.813965
0.813901
0.813844
0.813789
0.813728
0.813658
0.813592
0.813535
0.813483
0.813429
0.813375
0.813332
0.813294
0.813253
0.813219
0.813197
0.813195
0.813207
0.813228
0.813256
0.813293
0.813339
0.813397
0.813466
0.813537
0.813612
0.813687
0.813759
0.813827
0.813893
0.813956
0.814009
0.814051
0.814082
0.814105
0.814126
0.814141
0.81415
0.814148
0.814139
0.814128
0.814114
0.814093
0.814061
0.814023
0.813984
0.813948
0.813913
0.813873
0.813825
0.813773
0.81372
0.813668
0.813618
0.813565
0.813509
0.81345
0.813389
0.81333
0.813272
0.813216
0.813159
0.813098
0.813037
0.812977
0.812917
0.812858
0.812798
0.812737
0.812676
0.812615
0.812553
0.812488
0.812423
0.812358
0.812294
0.81223
0.812164
0.812095
0.812027
0.811959
0.811891
0.811823
0.811753
0.811683
0.811611
0.811539
0.811467
0.811395
0.811323
0.811248
0.811172
0.811096
0.811021
0.810946
0.81087
0.810792
0.810711
0.81063
0.810549
0.810469
0.810389
0.810307
0.810223
0.810137
0.81005
0.809963
0.809874
0.809784
0.809695
0.809605
0.809513
0.809418
0.809321
0.809224
0.809127
0.809029
0.808929
0.808828
0.808723
0.808617
0.808509
0.8084
0.80829
0.808178
0.808062
0.807944
0.807823
0.8077
0.807575
0.807447
0.807315
0.807178
0.807034
0.806882
0.806732
0.806586
0.806446
0.806312
0.806185
0.806065
0.805951
0.805843
0.805743
0.805651
0.805565
0.805487
0.805415
0.805351
0.805294
0.805244
0.805201
0.805165
0.805137
0.805116
0.805101
0.805091
0.805087
0.805087
0.805093
0.805103
0.805117
0.805136
0.805158
0.805182
0.805208
0.805233
0.805258
0.805282
0.805304
0.805322
0.805338
0.805351
0.805361
0.805368
0.805371
0.805372
0.80537
0.805365
0.805358
0.805348
0.805335
0.80532
0.805303
0.805284
0.805263
0.805239
0.805214
0.805188
0.805159
0.80513
0.805099
0.805067
0.805033
0.804999
0.804964
0.804928
0.804891
0.804854
0.804817
0.804779
0.80474
0.804701
0.804662
0.804624
0.804585
0.804546
0.804507
0.804468
0.804429
0.804391
0.804353
0.804315
0.804277
0.80424
0.804203
0.804167
0.804131
0.804096
0.804061
0.804026
0.803992
0.803959
0.803926
0.803893
0.803862
0.80383
0.803799
0.803769
0.803739
0.803709
0.803681
0.803652
0.803624
0.803597
0.80357
0.803544
0.803518
0.803494
0.803468
0.803443
0.803418
0.803391
0.803367
0.803341
0.803314
0.803288
0.803259
0.803228
0.803205
0.803175
0.803149
0.803126
0.803073
0.803029
0.803022
0.802962
0.80298
0.802951
0.803084
0.803139
0.803196
0.803211
0.803224
0.803216
0.80321
0.803196
0.803185
0.803169
0.803153
0.803138
0.803105
0.803076
0.803064
0.803026
0.803021
0.802988
0.803011
0.803018
0.803011
0.803004
0.80299
0.802975
0.802959
0.802942
0.802925
0.802902
0.802878
0.80286
0.802834
0.802818
0.802796
0.802733
0.802687
0.80268
0.802606
0.802678
0.802687
0.802962
0.803261
0.803544
0.803785
0.803978
0.804129
0.804245
0.804336
0.804405
0.804457
0.804496
0.804526
0.80455
0.804567
0.804581
0.804591
0.804598
0.804602
0.804605
0.804606
0.804605
0.804604
0.804601
0.804598
0.804593
0.804588
0.804582
0.804575
0.804568
0.804561
0.804552
0.804543
0.804534
0.804523
0.804512
0.804501
0.804489
0.804476
0.804464
0.804451
0.804438
0.804425
0.804411
0.804398
0.804385
0.804372
0.804359
0.804346
0.804333
0.804319
0.804306
0.804292
0.804278
0.804264
0.80425
0.804235
0.804221
0.804207
0.804193
0.804178
0.804164
0.80415
0.804136
0.804123
0.80411
0.804096
0.804083
0.80407
0.804057
0.804045
0.804032
0.804019
0.804006
0.803994
0.803981
0.803969
0.803955
0.803952
0.803911
0.803889
0.803646
0.691697
0.644106
0.60777
0.627067
0.629131
0.630169
0.638879
0.669891
0.72548
0.801938
0.8837
0.973396
1.06901
1.1621
1.23954
1.28507
1.28769
1.25908
1.20319
1.1322
1.06728
1.00628
0.93068
0.84041
0.750435
0.675641
0.613667
0.564929
0.530564
0.507203
0.490736
0.477715
0.465788
0.454543
0.445119
0.437763
0.430337
0.421159
0.411797
0.405659
0.402982
0.402364
0.399913
0.394084
0.385957
0.377456
0.371354
0.367408
0.363512
0.357397
0.349543
0.341652
0.335597
0.332369
0.331898
0.332312
0.332047
0.331074
0.330629
0.33301
0.339761
0.349168
0.35853
0.365012
0.367954
0.37202
0.380732
0.39411
0.412944
0.438541
0.473729
0.518231
0.571082
0.633832
0.705584
0.779818
0.846334
0.909617
0.989267
1.07452
1.14728
1.20845
1.25279
1.28875
1.24275
1.23143
1.21715
1.1807
1.04766
0.829991
0.619558
0.438334
0.322952
0.272471
0.275674
0.325582
0.421901
0.564899
0.731461
0.867473
0.95198
0.994384
0.961668
0.84474
0.681725
0.508998
0.361877
0.257942
0.202087
0.162868
0.134091
0.121707
0.123385
0.140887
0.169811
0.202474
0.222504
0.230431
0.234906
0.235314
0.208137
0.169368
0.153385
0.136663
0.124129
0.11684
0.109597
0.103562
0.100777
0.0989647
0.0984333
0.0987979
0.0989639
0.0992784
0.0998546
0.100556
0.101293
0.10205
0.102866
0.103603
0.104259
0.10484
0.105362
0.105897
0.106439
0.106926
0.107384
0.107915
0.108535
0.109181
0.109779
0.110296
0.110752
0.111262
0.111863
0.112472
0.113061
0.113671
0.114297
0.114841
0.11525
0.115602
0.116039
0.116539
0.116936
0.117187
0.117425
0.117754
0.118029
0.118077
0.117968
0.117908
0.118009
0.118077
0.117881
0.117405
0.116855
0.116474
0.11615
0.115687
0.115034
0.114273
0.113569
0.112661
0.111321
0.109916
0.108805
0.107917
0.106962
0.105704
0.104188
0.102622
0.10124
0.100031
0.0988454
0.0975432
0.0960197
0.094293
0.0925812
0.0911641
0.090071
0.0890218
0.0877173
0.0860884
0.0843885
0.0829102
0.0816762
0.0805118
0.0791957
0.0777113
0.0763381
0.0752636
0.0742135
0.0728334
0.0712206
0.06973
0.068652
0.0678988
0.0670799
0.0658975
0.0644191
0.0630019
0.0619282
0.0612404
0.0606391
0.0598494
0.0588691
0.0578029
0.0568231
0.0561473
0.0557627
0.0553449
0.0547337
0.0540483
0.0533814
0.0528621
0.0525827
0.0524574
0.0522764
0.0520199
0.0518454
0.051731
0.0515582
0.0513123
0.0511413
0.0511431
0.0514305
0.0516708
0.0514713
0.0512101
0.0511752
0.0513265
0.0515502
0.0516472
0.0516045
0.0515338
0.0514446
0.0514113
0.0514581
0.0514559
0.0513342
0.0510911
0.0508576
0.0508067
0.0509156
0.0510088
0.0508625
0.0503594
0.049894
0.049638
0.0495252
0.0495515
0.0495616
0.0493275
0.0489502
0.0486292
0.048366
0.0481207
0.0478552
0.0476145
0.0475485
0.0475476
0.0472802
0.0468269
0.0464515
0.0462031
0.0460257
0.0459215
0.0458422
0.0456203
0.0452489
0.0448863
0.0446253
0.0444421
0.0443498
0.044193
0.0438652
0.0435519
0.0432563
0.0429554
0.0427714
0.0425407
0.0421615
0.0417911
0.0414474
0.0411654
0.0407947
0.0403469
0.0399089
0.0395276
0.0392349
0.0389026
0.0384696
0.0379729
0.0375365
0.0372044
0.0368541
0.0364342
0.0360479
0.035699
0.0354118
0.0351282
0.0347669
0.0344356
0.0341868
0.0339955
0.0337761
0.0335037
0.0332658
0.0330906
0.0329737
0.0328765
0.0326842
0.0324202
0.0321498
0.0319149
0.0317159
0.0315306
0.0313377
0.0310879
0.0308274
0.0306053
0.0304135
0.0302592
0.0300824
0.0298432
0.0296089
0.0294228
0.0292921
0.0291671
0.029012
0.028851
0.0287305
0.0286632
0.0285884
0.0284898
0.0284176
0.0283803
0.0283475
0.0283039
0.0282759
0.0282722
0.0282819
0.0283016
0.0283132
0.0283217
0.0283431
0.0283805
0.0284267
0.0284681
0.0284906
0.0284928
0.0284925
0.0285007
0.0285058
0.0285014
0.0284988
0.0284995
0.0285032
0.0284941
0.0284552
0.0283995
0.028348
0.0283106
0.0282817
0.0282472
0.0282011
0.0281359
0.0280548
0.0279928
0.0279493
0.0278681
0.0277605
0.027692
0.0276304
0.0275437
0.0274689
0.0274094
0.0273363
0.0272379
0.0271244
0.0270089
0.0269125
0.0268323
0.0267325
0.0266513
0.0265101
0.0263746
0.0262274
0.0261218
0.0260256
0.0259196
0.0258402
0.0256733
0.025548
0.0255408
0.0254019
0.0254648
0.0255438
0.025015
0.0248993
0.0250842
0.0245356
0.0264064
0.0277812
0.0243798
0.025964
0.0254903
0.0254765
0.0274162
0.0292385
0.0280479
0.0260919
0.0246501
0.0238058
0.0234482
0.0233053
0.0232588
0.0232584
0.0233405
0.0232052
0.0247818
0.0263377
0.0237536
0.0247871
0.0246792
0.0248017
0.0259954
0.026954
0.0262175
0.0249554
0.0240455
0.023582
0.023224
0.0232013
0.0230929
0.023706
0.0239608
0.0234518
0.0241767
0.0239085
0.0257062
0.037275
0.0405811
0.0351123
0.0421875
0.0450559
0.0479014
0.0552729
0.0631435
0.0650586
0.0586431
0.0489547
0.0404835
0.0344005
0.0304371
0.027936
0.0263513
0.0253482
0.0247188
0.0243373
0.0241121
0.0239925
0.0239731
0.0240265
0.0241125
0.0242447
0.024384
0.0245015
0.0245919
0.0247448
0.0249305
0.025094
0.0252287
0.0253385
0.0254425
0.0255469
0.0256399
0.0257309
0.0258084
0.0259036
0.0258177
0.0256934
0.0256402
0.0256415
0.0256824
0.0257629
0.0258382
0.0258968
0.025964
0.0260493
0.0261455
0.0262352
0.0262339
0.0264494
0.0266731
0.0267646
0.0267683
0.0267434
0.0266893
0.0266348
0.0266045
0.0266173
0.0266816
0.0267723
0.0268396
0.0268398
0.0267834
0.0267529
0.0268191
0.0269825
0.0271514
0.0271844
0.027087
0.0270155
0.0270915
0.0272315
0.0272199
0.0270695
0.0269677
0.0270561
0.0268802
0.0266209
0.0264166
0.0266841
0.0269428
0.0275013
0.0281261
0.0296251
0.0273078
0.300748
0.256787
0.235305
0.227631
0.21855
0.221215
0.237269
0.268017
0.318344
0.394088
0.489591
0.597197
0.710156
0.818009
0.910617
0.976408
1.01833
1.02532
0.985953
0.918153
0.833028
0.729203
0.622909
0.529654
0.453147
0.39206
0.345744
0.311486
0.286542
0.269413
0.258154
0.25049
0.243925
0.237117
0.229761
0.222897
0.215633
0.206669
0.198522
0.193543
0.192352
0.193894
0.194921
0.191919
0.185046
0.175875
0.168056
0.163679
0.161975
0.16042
0.156763
0.151313
0.145684
0.140936
0.137724
0.136062
0.135204
0.135063
0.136857
0.142036
0.150717
0.160241
0.166915
0.169735
0.170405
0.172535
0.177057
0.182118
0.187742
0.195536
0.206726
0.221406
0.240729
0.265686
0.296674
0.333029
0.373008
0.413857
0.45714
0.504006
0.556638
0.618457
0.691396
0.777175
0.899997
1.02882
1.0866
1.05671
0.952352
0.846686
0.723016
0.571956
0.434938
0.332793
0.260364
0.21687
0.209305
0.247816
0.325599
0.412198
0.478483
0.520571
0.53274
0.504468
0.447366
0.384939
0.31928
0.250041
0.185376
0.134771
0.0952512
0.0640282
0.0431541
0.0299857
0.0276178
0.031307
0.0379147
0.0433911
0.0460861
0.0451602
0.0434532
0.0415148
0.039864
0.0344335
0.0268096
0.0232534
0.0197937
0.0172864
0.0158304
0.0147067
0.0138349
0.013433
0.0132386
0.0132234
0.0133598
0.0135675
0.0137578
0.0139191
0.0140684
0.0142105
0.0143661
0.0145326
0.0147022
0.0148651
0.0150171
0.0151506
0.0152831
0.0154302
0.0155886
0.0157538
0.0159145
0.0160569
0.0161881
0.0163225
0.0164659
0.0166165
0.0167643
0.0169101
0.0170638
0.0172102
0.0173264
0.0174128
0.017501
0.0176022
0.0176932
0.0177538
0.0177934
0.0178454
0.017896
0.0178973
0.017841
0.0177814
0.0177678
0.0177602
0.0176876
0.0175325
0.0173477
0.0171966
0.0170695
0.0169145
0.0167127
0.0164961
0.016288
0.0160209
0.0156608
0.0152825
0.0149582
0.0146975
0.0144486
0.0141541
0.0138048
0.013422
0.0130567
0.0127299
0.0124335
0.012144
0.0118241
0.0114553
0.0110775
0.0107563
0.0105054
0.0102692
0.00998978
0.00966541
0.00933963
0.0090542
0.00880803
0.00856952
0.0083121
0.00804351
0.00780249
0.00760362
0.00740095
0.00715525
0.00689004
0.00664943
0.00646419
0.00632298
0.00618029
0.00599757
0.00578072
0.00557416
0.00541002
0.00529178
0.00518965
0.00507424
0.00494146
0.00480185
0.00467286
0.00457479
0.00450912
0.00444682
0.00436859
0.00428175
0.00419819
0.0041344
0.00409948
0.00408399
0.00406412
0.00403303
0.00400502
0.00398215
0.00396244
0.00394482
0.00393485
0.00393841
0.00396446
0.00398366
0.00396822
0.00394985
0.00395351
0.00397523
0.0039971
0.00400261
0.00399812
0.00399722
0.00399862
0.00400538
0.00401367
0.00400474
0.00398314
0.00395932
0.00394093
0.00393863
0.00394927
0.00395414
0.00393388
0.00388177
0.0038338
0.00380651
0.00379445
0.00379096
0.00378203
0.0037562
0.00372206
0.00369069
0.00365994
0.00362959
0.00359917
0.0035742
0.00356626
0.0035611
0.00353261
0.0034886
0.0034523
0.00342861
0.00341001
0.00339471
0.00338142
0.00335885
0.00332556
0.00329394
0.0032698
0.00324917
0.00323379
0.00321474
0.00318674
0.00316226
0.00313523
0.00310291
0.0030779
0.00305329
0.0030235
0.00299195
0.00295512
0.00292278
0.00288919
0.00285175
0.00281239
0.00277548
0.00274372
0.00271048
0.00267395
0.00263135
0.00259048
0.0025567
0.00252354
0.00248902
0.00245675
0.00242476
0.00239554
0.00236772
0.00233829
0.00231248
0.00229153
0.00227192
0.00225044
0.0022279
0.00220833
0.00219266
0.00217897
0.00216539
0.00214783
0.00212657
0.00210492
0.0020851
0.0020667
0.00204874
0.00203095
0.00201142
0.00199162
0.00197317
0.00195658
0.00194226
0.00192631
0.00190824
0.00189172
0.00187787
0.00186664
0.00185586
0.00184447
0.00183384
0.00182543
0.00181947
0.0018139
0.00180818
0.00180398
0.00180132
0.00179945
0.00179811
0.00179811
0.00179903
0.00180042
0.00180282
0.00180549
0.00180839
0.00181194
0.00181606
0.00182076
0.0018253
0.00182883
0.00183132
0.00183353
0.00183603
0.00183843
0.00184019
0.0018417
0.0018428
0.00184388
0.00184448
0.00184384
0.00184206
0.00184011
0.00183869
0.00183765
0.00183596
0.00183339
0.00183012
0.00182597
0.00182254
0.00181937
0.00181503
0.00180939
0.00180583
0.00180167
0.00179679
0.00179174
0.0017878
0.00178295
0.00177805
0.00177147
0.00176544
0.00175924
0.00175456
0.00174702
0.00174246
0.00173558
0.00172839
0.00171913
0.00170993
0.00170281
0.00169262
0.00168945
0.00168074
0.00168043
0.00168229
0.00166479
0.0016627
0.00167281
0.00166881
0.00173113
0.00179224
0.0016805
0.00178247
0.00179659
0.00169833
0.00165234
0.00166146
0.00170347
0.00176884
0.00182036
0.00174413
0.00165543
0.0016031
0.00157271
0.00156711
0.0015623
0.00158892
0.00161832
0.00166576
0.00162326
0.00169315
0.0017201
0.00166823
0.00163905
0.00164264
0.00166967
0.00169293
0.00172043
0.00167922
0.00164243
0.0016127
0.00160267
0.00158592
0.00157601
0.00153896
0.00160229
0.00162377
0.00173248
0.00214391
0.00246369
0.00250213
0.00322659
0.0033324
0.00302609
0.00290839
0.00309786
0.00352412
0.00411622
0.00452429
0.00433163
0.00369501
0.00302732
0.00251585
0.00217481
0.00195938
0.00182392
0.001736
0.00167746
0.00163794
0.00161159
0.00159414
0.00158326
0.00157842
0.00157748
0.00157863
0.00158234
0.00158711
0.001592
0.00159718
0.00160572
0.0016159
0.00162544
0.00163414
0.00164214
0.00164924
0.00165576
0.00166182
0.00166786
0.00167316
0.00167853
0.00167783
0.00167583
0.00167598
0.00167791
0.00168084
0.00168424
0.0016884
0.00169251
0.00169709
0.00170282
0.00170977
0.00171588
0.00171884
0.00172905
0.00173825
0.0017428
0.00174432
0.00174445
0.00174347
0.0017419
0.00174089
0.00174189
0.00174578
0.00175143
0.00175613
0.0017577
0.00175712
0.00175801
0.00176383
0.00177308
0.00177962
0.00177937
0.001776
0.00177639
0.00178171
0.00178595
0.00178261
0.00177749
0.00177641
0.0017803
0.00177238
0.00176323
0.00175795
0.00177695
0.00178983
0.00185261
0.0019304
0.00208113
0.00195302
0.143593
0.128459
0.120932
0.115783
0.109838
0.111237
0.120964
0.138946
0.165716
0.200732
0.24062
0.280829
0.320403
0.360709
0.404422
0.45197
0.490177
0.506456
0.494494
0.454381
0.396162
0.330986
0.273824
0.231141
0.199566
0.175312
0.156552
0.141999
0.131335
0.124393
0.120277
0.118128
0.116395
0.11369
0.109543
0.103768
0.097193
0.0912022
0.0867483
0.0837167
0.0822688
0.0822575
0.0826996
0.0812828
0.077452
0.0729608
0.0692345
0.0672028
0.0668508
0.0673581
0.0668005
0.0644439
0.0610479
0.0575615
0.0547378
0.0530057
0.0522625
0.0523106
0.0534555
0.0560802
0.0598178
0.0635134
0.0663781
0.0686584
0.0715556
0.0755514
0.0791605
0.0815526
0.0836764
0.0868289
0.0912859
0.0973774
0.106033
0.117734
0.131362
0.146171
0.162817
0.183426
0.209456
0.242402
0.282624
0.331128
0.388823
0.457125
0.531689
0.606595
0.669654
0.729808
0.758382
0.751389
0.680881
0.577273
0.488926
0.40445
0.318843
0.250924
0.20334
0.174532
0.165684
0.174112
0.194614
0.223662
0.251387
0.260332
0.252273
0.23843
0.22314
0.20753
0.193061
0.177287
0.152774
0.122801
0.0906488
0.0627756
0.0398445
0.0251231
0.0151866
0.0110487
0.00942541
0.00914615
0.00926866
0.0093016
0.00907179
0.00936954
0.0100058
0.0107134
0.00983341
0.00791414
0.00683581
0.00585445
0.00510965
0.00454182
0.00410361
0.00377289
0.00358833
0.00349099
0.00344515
0.00343937
0.00345364
0.00346667
0.00347231
0.00348009
0.00349565
0.00352108
0.00354986
0.00357515
0.00359771
0.00362032
0.00364387
0.00367358
0.00370728
0.00373964
0.00376907
0.00379489
0.00382115
0.00385264
0.00388457
0.00391397
0.00394395
0.00397562
0.00400505
0.00402626
0.00404018
0.00405433
0.00407208
0.00408789
0.00409604
0.00410139
0.00410769
0.0041072
0.00409438
0.00407788
0.00406983
0.0040653
0.00404826
0.00401456
0.00397407
0.00393733
0.00390665
0.00387222
0.00382766
0.00377968
0.00373228
0.00367485
0.00360567
0.00353314
0.00346534
0.00340714
0.00335266
0.0032942
0.00322919
0.00315737
0.00308463
0.0030165
0.00295466
0.00289813
0.00284108
0.00277681
0.00270943
0.00264831
0.00259719
0.00255071
0.00250032
0.00244514
0.00238979
0.00233845
0.00229223
0.00224811
0.00220398
0.00216036
0.0021191
0.00208113
0.00204338
0.00200274
0.00196184
0.00192423
0.00189141
0.0018622
0.00183389
0.00180374
0.00177232
0.00174244
0.00171521
0.00169074
0.00166867
0.00164792
0.00162788
0.00160801
0.00158845
0.00157048
0.00155474
0.00154068
0.00152729
0.00151358
0.0015005
0.00149009
0.00148231
0.00147545
0.00146818
0.00146042
0.0014538
0.00144905
0.00144545
0.00144217
0.00143907
0.0014365
0.00143485
0.00143326
0.00143149
0.00143071
0.00143108
0.00143163
0.00143102
0.0014294
0.00142825
0.00142853
0.00142933
0.00142945
0.0014287
0.00142676
0.00142426
0.0014222
0.00142066
0.00141932
0.00141879
0.0014185
0.00141669
0.00141265
0.00140854
0.00140595
0.00140452
0.00140266
0.0013999
0.0013971
0.00139477
0.00139293
0.00139073
0.0013879
0.00138471
0.00138209
0.0013809
0.00137983
0.00137808
0.00137574
0.0013731
0.00137099
0.00136925
0.00136764
0.0013665
0.00136534
0.00136351
0.0013614
0.00135955
0.00135768
0.00135593
0.00135436
0.00135244
0.00135059
0.00134841
0.00134554
0.00134261
0.00133998
0.00133712
0.00133382
0.00133003
0.00132618
0.00132221
0.00131785
0.00131311
0.00130842
0.00130372
0.00129866
0.00129338
0.0012876
0.00128171
0.00127594
0.00127
0.00126397
0.00125805
0.00125188
0.0012456
0.00123941
0.00123321
0.00122705
0.00122113
0.00121512
0.00120899
0.00120312
0.00119737
0.0011917
0.00118618
0.00118079
0.00117546
0.00117014
0.00116488
0.00115979
0.00115498
0.0011503
0.00114571
0.00114133
0.00113711
0.00113299
0.00112907
0.00112544
0.00112198
0.00111861
0.0011155
0.00111272
0.00111014
0.00110774
0.0011055
0.00110346
0.00110168
0.00110019
0.0010989
0.0010977
0.00109669
0.00109588
0.00109523
0.0010948
0.00109454
0.00109433
0.00109419
0.00109427
0.0010945
0.00109475
0.00109493
0.0010952
0.00109562
0.00109607
0.00109639
0.00109667
0.00109689
0.00109716
0.00109745
0.00109766
0.00109771
0.0010977
0.0010977
0.00109771
0.00109758
0.0010973
0.001097
0.00109669
0.00109634
0.00109587
0.00109542
0.00109489
0.00109428
0.00109361
0.0010929
0.00109218
0.00109146
0.00109069
0.00108987
0.00108902
0.00108814
0.00108728
0.00108642
0.00108553
0.00108459
0.00108353
0.00108259
0.00108157
0.00108056
0.00107984
0.00107883
0.00107754
0.00107637
0.00107505
0.00107406
0.00107408
0.0010746
0.00107596
0.00107611
0.00108097
0.00109479
0.00110432
0.00112378
0.00112681
0.00121081
0.0012512
0.00118714
0.00114498
0.00112102
0.00111957
0.00109688
0.00109485
0.00107724
0.00106822
0.00106871
0.00107581
0.00107963
0.0011008
0.00111115
0.0011181
0.00112879
0.00115188
0.00120054
0.00122841
0.00117675
0.00114382
0.00112136
0.00111586
0.00109042
0.0010873
0.00107792
0.00107396
0.00108069
0.00107533
0.00106999
0.00106239
0.00112072
0.0011297
0.0011157
0.00121656
0.001303
0.00155146
0.00177271
0.00231664
0.00256194
0.00229848
0.00200233
0.00177332
0.00162738
0.00150485
0.00142138
0.00134113
0.00127635
0.00125847
0.00125457
0.00123896
0.00121204
0.00118336
0.00115799
0.00113705
0.00112019
0.00110636
0.00109524
0.00108631
0.00107884
0.00107272
0.00106782
0.00106406
0.00106109
0.00105869
0.0010569
0.00105553
0.00105451
0.0010539
0.00105374
0.00105371
0.00105371
0.00105383
0.00105404
0.00105423
0.00105447
0.0010548
0.00105517
0.00105552
0.00105591
0.00105637
0.00105692
0.00105748
0.00105793
0.00105831
0.00105869
0.00105907
0.00105949
0.00106
0.00106056
0.0010611
0.00106163
0.00106218
0.00106254
0.00106281
0.00106312
0.00106345
0.00106373
0.0010639
0.00106395
0.00106399
0.00106412
0.00106442
0.00106481
0.00106519
0.00106549
0.00106574
0.00106599
0.00106621
0.00106635
0.00106645
0.00106662
0.00106688
0.00106703
0.00106693
0.0010668
0.00106693
0.00106722
0.00106727
0.00106718
0.00106729
0.00106786
0.00106676
0.00107288
0.00107722
0.00112397
0.00118724
0.00130483
0.00126497
0.0811319
0.0768944
0.074884
0.0699386
0.0659894
0.0655035
0.069381
0.076761
0.0861644
0.0962669
0.105849
0.114746
0.122726
0.130909
0.141271
0.153593
0.164671
0.170096
0.167784
0.157523
0.141456
0.123698
0.108644
0.0973822
0.0886868
0.0815459
0.0752471
0.0699179
0.0659815
0.0635539
0.0623526
0.062062
0.0621923
0.0613927
0.0589504
0.0551715
0.0511357
0.0476569
0.0450242
0.0432919
0.0422365
0.0416737
0.0412589
0.0399214
0.0376116
0.0355217
0.0341977
0.0336831
0.033888
0.034419
0.0343085
0.0328831
0.0305974
0.0283867
0.026878
0.026112
0.0258669
0.0260216
0.0266696
0.0279024
0.0294033
0.0307732
0.0320965
0.0338571
0.0364368
0.0393402
0.0413403
0.0420965
0.0422874
0.0429102
0.0443374
0.0468699
0.0510446
0.0569655
0.0637195
0.070559
0.0772112
0.0844963
0.0940033
0.106997
0.125914
0.152892
0.189046
0.233179
0.282457
0.332512
0.378651
0.418828
0.451349
0.472791
0.477349
0.476635
0.45203
0.40374
0.342563
0.288166
0.237956
0.193275
0.158609
0.132843
0.11614
0.108897
0.108372
0.109698
0.111467
0.112819
0.11179
0.109951
0.110053
0.113017
0.115521
0.116674
0.114324
0.104224
0.0876057
0.068434
0.0509862
0.0345405
0.0219685
0.0129166
0.00862078
0.00626617
0.005107
0.00474906
0.00469447
0.00473788
0.00522993
0.00603544
0.00694011
0.00678507
0.00578686
0.00515667
0.0045232
0.00399135
0.0034638
0.00319094
0.00293492
0.00271569
0.00254553
0.00241821
0.0023347
0.00228616
0.00226116
0.00224747
0.00223961
0.0022339
0.0022298
0.00222658
0.00222728
0.00223453
0.00224501
0.00225293
0.00225736
0.00226012
0.00226628
0.00227669
0.00228758
0.00229639
0.00230171
0.00230715
0.0023154
0.00232255
0.00232498
0.00232597
0.00233011
0.00233422
0.00233366
0.00233117
0.00233025
0.00232883
0.00232468
0.00231882
0.0023131
0.00230856
0.00230202
0.0022913
0.00228001
0.00226981
0.00225957
0.00224703
0.00223113
0.00221515
0.00220105
0.0021859
0.00216919
0.00215052
0.0021306
0.00211018
0.00209026
0.00207215
0.00205367
0.00203465
0.00201494
0.00199336
0.00197174
0.00195188
0.00193373
0.00191488
0.00189487
0.00187442
0.00185488
0.00183743
0.00182017
0.00180159
0.00178205
0.00176262
0.00174469
0.00172802
0.00171187
0.00169495
0.00167684
0.00165899
0.00164258
0.00162718
0.00161193
0.00159629
0.00157997
0.00156362
0.00154838
0.00153458
0.00152156
0.00150827
0.00149429
0.00147991
0.00146645
0.00145451
0.00144364
0.00143341
0.00142329
0.00141306
0.00140263
0.00139242
0.00138349
0.00137573
0.00136854
0.00136167
0.00135517
0.00134885
0.00134257
0.00133713
0.00133293
0.00132947
0.00132605
0.00132239
0.00131855
0.00131492
0.00131206
0.00131025
0.00130938
0.00130871
0.0013073
0.00130537
0.0013037
0.0013023
0.00130121
0.00130054
0.00130008
0.00129914
0.00129778
0.00129727
0.00129697
0.00129627
0.00129546
0.00129398
0.00129233
0.00129147
0.00129128
0.00129104
0.00129019
0.0012891
0.00128787
0.00128654
0.00128579
0.00128523
0.00128429
0.00128359
0.00128341
0.00128319
0.00128233
0.00128104
0.00128031
0.00128023
0.00128038
0.0012803
0.0012797
0.00127894
0.0012787
0.00127886
0.00127869
0.00127844
0.00127821
0.00127785
0.00127758
0.00127748
0.0012771
0.00127654
0.00127584
0.00127512
0.0012746
0.00127387
0.00127264
0.00127125
0.00126976
0.00126831
0.00126672
0.00126463
0.00126232
0.00125988
0.00125721
0.00125437
0.00125134
0.00124796
0.00124448
0.0012409
0.001237
0.00123274
0.00122834
0.00122399
0.00121962
0.00121498
0.00121006
0.00120499
0.00119994
0.00119495
0.00118997
0.00118478
0.00117949
0.00117437
0.00116931
0.00116426
0.00115926
0.00115438
0.00114966
0.00114507
0.00114057
0.00113615
0.00113195
0.00112787
0.00112387
0.00112013
0.00111662
0.00111318
0.00110984
0.00110675
0.00110386
0.00110108
0.00109847
0.00109606
0.00109382
0.00109173
0.00108986
0.00108818
0.00108661
0.00108522
0.00108399
0.00108289
0.001082
0.00108125
0.00108053
0.00107994
0.00107952
0.00107919
0.00107897
0.00107883
0.00107876
0.00107874
0.00107876
0.00107882
0.0010789
0.00107897
0.0010791
0.00107917
0.00107924
0.00107928
0.00107935
0.00107935
0.00107935
0.00107924
0.00107915
0.00107897
0.0010788
0.00107847
0.00107821
0.00107787
0.00107754
0.00107709
0.00107664
0.00107622
0.00107566
0.00107514
0.00107448
0.00107392
0.00107327
0.00107264
0.00107195
0.00107128
0.00107056
0.00106982
0.00106909
0.00106835
0.00106764
0.00106684
0.00106604
0.0010653
0.00106464
0.00106403
0.00106354
0.00106255
0.00106632
0.00106688
0.00106586
0.00106464
0.00106976
0.0010843
0.00109482
0.00111375
0.00111965
0.00120723
0.00125248
0.0011873
0.00114296
0.00111645
0.00111261
0.00108703
0.00108117
0.00106271
0.00105701
0.00105418
0.00106128
0.00107174
0.00109432
0.00110637
0.00112696
0.001132
0.0012021
0.00123291
0.00120168
0.00115908
0.00112475
0.00111325
0.00110893
0.00108271
0.00107776
0.00106674
0.00106033
0.0010674
0.00106516
0.00105422
0.00105058
0.00111382
0.00113922
0.00122373
0.00128499
0.00146207
0.00167305
0.00195837
0.0024453
0.00266731
0.0024065
0.00209728
0.00184037
0.00166123
0.00149498
0.00136924
0.00126619
0.00117928
0.00114047
0.00113854
0.0011455
0.001149
0.00114845
0.00114379
0.00113585
0.00112626
0.00111613
0.00110617
0.00109678
0.00108809
0.00108043
0.00107401
0.00106828
0.00106321
0.0010589
0.00105533
0.00105237
0.00104992
0.00104794
0.00104629
0.00104497
0.00104408
0.00104347
0.00104288
0.00104237
0.00104201
0.0010418
0.00104162
0.00104159
0.00104172
0.00104185
0.00104199
0.00104218
0.00104243
0.00104274
0.00104305
0.00104332
0.00104358
0.00104381
0.00104404
0.0010443
0.00104459
0.00104489
0.00104515
0.00104538
0.00104558
0.00104573
0.00104587
0.00104605
0.00104626
0.00104643
0.00104655
0.0010466
0.00104667
0.00104682
0.00104703
0.00104725
0.00104741
0.00104752
0.0010476
0.00104765
0.00104766
0.00104767
0.00104777
0.00104794
0.00104796
0.00104775
0.00104762
0.00104788
0.00104829
0.00104827
0.00104801
0.00104822
0.00104863
0.00104883
0.00104743
0.00105385
0.0010581
0.00110459
0.00116771
0.00128464
0.0012477
0.0544477
0.0509505
0.0502709
0.0471935
0.0450362
0.0448412
0.0466741
0.0498867
0.0534436
0.0565579
0.0591533
0.0610421
0.0623164
0.0632389
0.064221
0.0653219
0.0662809
0.0666794
0.0659113
0.0635117
0.059994
0.0562181
0.0529734
0.0503602
0.0479519
0.0455874
0.0429893
0.0403907
0.0382367
0.0367475
0.0359461
0.0357567
0.0358987
0.0357687
0.0348001
0.0330067
0.0308951
0.0290448
0.0277823
0.0271487
0.0269465
0.0268027
0.0263051
0.0251135
0.0234328
0.0220592
0.0213532
0.0213285
0.0217832
0.0223147
0.0225118
0.0220734
0.0208404
0.0192859
0.0181757
0.0177013
0.0176864
0.0179911
0.0186461
0.0194767
0.0201447
0.0205941
0.0211284
0.0220966
0.0235767
0.0252408
0.0264379
0.0267859
0.0263547
0.0256581
0.0254216
0.0261626
0.0281855
0.0313521
0.0351455
0.0389749
0.0423448
0.045193
0.0485357
0.0533221
0.0603597
0.0706048
0.0852141
0.104874
0.129816
0.159598
0.192058
0.224271
0.250665
0.270117
0.283845
0.293034
0.296086
0.290639
0.285232
0.268719
0.240958
0.208635
0.178419
0.150036
0.125729
0.105471
0.0885575
0.075353
0.0657105
0.0587491
0.0529122
0.0493344
0.0493469
0.0531662
0.0591162
0.066749
0.0739033
0.0793041
0.0825422
0.082853
0.0777016
0.0675852
0.0553021
0.0436899
0.0319295
0.0212583
0.0128821
0.00869648
0.00620977
0.00486782
0.00438987
0.00425703
0.00430665
0.00483071
0.00571522
0.00677103
0.00683651
0.00609785
0.005424
0.00484387
0.00435349
0.00390536
0.00345207
0.00308861
0.00278281
0.00254063
0.00236935
0.0022616
0.00220157
0.00216843
0.00214353
0.00212151
0.00210736
0.00210624
0.00211064
0.00211189
0.00211002
0.0021089
0.00211281
0.00212163
0.00212931
0.00213426
0.00213455
0.00213424
0.00213731
0.00214195
0.00214496
0.00214572
0.0021464
0.00214453
0.00213994
0.00213649
0.00213531