/*--------------------------------*- C++ -*----------------------------------*\
| =========                 |                                                 |
| \\      /  F ield         | OpenFOAM: The Open Source CFD Toolbox           |
|  \\    /   O peration     | Version:  v2006                                 |
|   \\  /    A nd           | Website:  www.openfoam.com                      |
|    \\/     M anipulation  |                                                 |
\*---------------------------------------------------------------------------*/
FoamFile
{
    version     2.0;
    format      ascii;
    class       volScalarField;
    location    "5.9";
    object      p_rgh;
}
// * * * * * * * * * * * * * * * * * * * * * * * * * * * * * * * * * * * * * //

dimensions      [1 -1 -2 0 0 0 0];


internalField   nonuniform List<scalar> 
33000
(
7597.97
7578.19
7567.01
7555.58
7544.29
7533
7521.67
7510.37
7499.24
7488.28
7477.41
7466.61
7455.92
7445.52
7435.51
7425.98
7417.28
7409.3
7401.68
7394.21
7386.76
7378.75
7370.55
7363.06
7355.58
7348.38
7341.49
7334.86
7328.45
7322.3
7316.36
7310.63
7305.18
7300.04
7295.09
7290.37
7285.89
7281.73
7277.68
7273.93
7270.39
7267.03
7263.93
7261.07
7258.5
7256.1
7253.9
7251.98
7250.22
7248.65
7247.28
7246.17
7245.32
7244.65
7244.16
7243.84
7243.72
7243.77
7243.98
7244.38
7244.93
7245.6
7246.48
7247.62
7248.89
7250.28
7251.81
7253.5
7255.39
7257.44
7259.61
7261.89
7264.26
7266.7
7269.2
7271.8
7274.66
7275.69
7273.39
7276.32
7282.53
7283.73
7287.14
7290.64
7293.59
7297.37
7301.93
7305.93
7310.29
7314.29
7318.96
7323.23
7327.62
7332.24
7336.23
7340.98
7344.04
7348.62
7349.52
7353.96
7363.83
7369.76
7376.81
7384.34
7391.44
7399.39
7408.35
7416.65
7425.66
7434.09
7443.1
7451.88
7460.74
7470.06
7478.46
7487.83
7494.25
7503.63
7517.41
7527.86
7539.75
7551.79
7563.64
7576.31
7589.66
7602.82
7616.5
7630.26
7644.2
7658.37
7672.77
7687.25
7701.96
7716.71
7731.59
7746.56
7761.64
7776.8
7792
7807.29
7822.6
7837.96
7853.32
7868.68
7884.04
7899.4
7914.73
7930.02
7945.22
7960.33
7975.34
7990.24
8005.06
8019.74
8034.24
8048.58
8062.73
8076.69
8090.47
8104.03
8117.38
8130.5
8143.37
8156
8168.37
8180.47
8192.33
8203.91
8215.22
8226.23
8236.97
8247.45
8257.63
8267.51
8277.09
8286.39
8295.42
8304.16
8312.6
8320.75
8328.63
8336.23
8343.56
8350.63
8357.46
8364.05
8370.4
8376.5
8382.4
8388.09
8393.59
8398.92
8404.07
8409.07
8413.91
8418.63
8423.23
8427.74
8432.14
8436.42
8440.56
8444.55
8448.38
8452.06
8455.57
8458.89
8462.01
8464.91
8467.6
8470.07
8472.32
8474.32
8476.08
8477.58
8478.85
8479.86
8480.59
8481.06
8481.24
8481.16
8480.82
8480.2
8479.29
8478.1
8476.62
8474.86
8472.83
8470.53
8467.94
8465.08
8461.94
8458.52
8454.84
8450.91
8446.71
8442.25
8437.54
8432.58
8427.38
8421.95
8416.29
8410.41
8404.32
8398.03
8391.54
8384.85
8377.98
8370.92
8363.71
8356.35
8348.84
8341.18
8333.39
8325.48
8317.47
8309.36
8301.16
8292.89
8284.54
8276.13
8267.67
8259.18
8250.66
8242.12
8233.57
8225.02
8216.48
8207.97
8199.5
8191.05
8182.65
8174.31
8166.03
8157.82
8149.7
8141.67
8133.72
8125.88
8118.14
8110.52
8103.01
8095.61
8088.35
8081.22
8074.23
8067.36
8060.64
8054.05
8047.61
8041.31
8035.17
8029.17
8023.31
8017.6
8012.04
8006.62
8001.35
7996.22
7991.24
7986.4
7981.7
7977.14
7972.72
7968.43
7964.27
7960.25
7956.35
7952.58
7948.93
7945.4
7941.99
7938.69
7935.51
7932.43
7929.46
7926.6
7923.83
7921.16
7918.59
7916.11
7913.71
7911.4
7909.18
7907.04
7904.98
7902.99
7901.08
7899.24
7897.48
7895.78
7894.14
7892.57
7891.07
7889.62
7888.24
7886.91
7885.64
7884.42
7883.26
7882.15
7881.09
7880.08
7879.12
7878.21
7877.36
7876.56
7875.81
7875.12
7874.48
7873.89
7873.36
7872.88
7872.46
7872.09
7871.77
7871.5
7871.28
7871.12
7871
7870.93
7870.91
7870.94
7871.01
7871.13
7871.29
7871.49
7871.73
7872.01
7872.33
7872.68
7873.07
7873.5
7873.95
7874.44
7874.95
7875.5
7876.06
7876.66
7877.27
7877.9
7878.56
7879.23
7879.92
7880.63
7881.35
7882.08
7882.82
7883.57
7884.33
7885.1
7885.87
7886.65
7887.43
7888.21
7889
7889.79
7890.57
7891.36
7892.15
7892.93
7893.71
7894.49
7895.26
7896.02
7896.78
7897.54
7898.29
7899.03
7899.76
7900.48
7901.2
7901.9
7902.6
7903.29
7903.96
7904.62
7905.27
7905.91
7906.53
7907.15
7907.74
7908.33
7908.89
7909.45
7909.99
7910.52
7911.03
7911.53
7912.02
7912.47
7912.93
7913.4
7913.83
7914.26
7914.65
7915.05
7915.42
7915.78
7916.13
7916.45
7916.78
7917.06
7917.37
7917.65
7917.93
7918.18
7918.46
7918.63
7918.9
7919.19
7919.43
7919.67
7919.87
7920.07
7920.24
7920.42
7920.57
7920.72
7920.86
7920.98
7921.11
7921.2
7921.3
7921.41
7921.5
7921.55
7921.69
7921.61
7921.73
7921.88
7921.92
7921.91
7921.92
7921.92
7921.93
7921.94
7921.94
7921.94
7921.93
7921.93
7921.92
7921.91
7921.89
7921.87
7921.85
7921.82
7921.79
7921.76
7921.72
7921.68
7921.63
7921.58
7921.53
7921.48
7921.42
7921.35
7921.29
7921.22
7921.14
7921.07
7920.99
7920.9
7920.82
7920.73
7920.63
7920.53
7920.43
7920.33
7920.22
7920.11
7919.99
7919.87
7919.75
7919.62
7919.5
7919.36
7919.23
7919.09
7918.95
7918.8
7918.65
7918.5
7918.34
7918.19
7918.02
7917.86
7917.69
7917.52
7917.34
7917.17
7916.98
7916.8
7916.61
7916.42
7916.23
7916.03
7915.83
7915.62
7915.41
7915.2
7914.99
7914.77
7914.55
7914.33
7914.1
7913.87
7913.64
7913.37
7913.23
7912.76
7595.25
7577.86
7566.53
7554.81
7543.35
7531.92
7520.58
7509.29
7498.2
7487.33
7476.52
7465.74
7455.09
7444.61
7434.49
7425.02
7416.14
7407.57
7399.37
7392.01
7384.83
7377.26
7369.66
7362.08
7354.71
7347.68
7340.84
7334.23
7327.84
7321.66
7315.63
7309.91
7304.53
7299.45
7294.41
7289.68
7285.23
7281.16
7277.18
7273.41
7269.83
7266.37
7263.29
7260.42
7257.88
7255.6
7253.41
7251.45
7249.65
7248.04
7246.72
7245.6
7244.79
7244.16
7243.67
7243.37
7243.25
7243.32
7243.54
7243.89
7244.35
7245.09
7246.03
7247.13
7248.46
7249.86
7251.28
7252.95
7254.9
7257.01
7259.16
7261.4
7263.68
7265.96
7268.36
7270.82
7273.05
7274.88
7277.37
7280.52
7281.27
7278.64
7283.06
7291.81
7294.3
7298.26
7301.88
7306
7309.4
7313.66
7318.73
7323.28
7327.84
7332.49
7336.84
7341.69
7346.01
7350.56
7354.62
7358.27
7364.61
7365.01
7372.09
7384.54
7392.14
7400.88
7408.45
7416.61
7424.33
7432.96
7442.55
7451.57
7460.8
7470.02
7479.07
7488.44
7497.76
7506.88
7517.8
7524.59
7536.05
7551.6
7563.79
7576.66
7589.45
7602.11
7615.61
7629.89
7643.87
7658.18
7672.46
7686.9
7701.62
7716.48
7731.38
7746.42
7761.48
7776.69
7791.86
7807.16
7822.48
7837.86
7853.23
7868.59
7883.97
7899.34
7914.68
7930
7945.23
7960.36
7975.35
7990.28
8005.09
8019.82
8034.35
8048.7
8062.85
8076.82
8090.61
8104.18
8117.53
8130.67
8143.56
8156.19
8168.55
8180.65
8192.53
8204.13
8215.42
8226.42
8237.16
8247.67
8257.85
8267.72
8277.28
8286.58
8295.63
8304.37
8312.8
8320.95
8328.83
8336.45
8343.77
8350.81
8357.63
8364.24
8370.61
8376.72
8382.6
8388.29
8393.79
8399.13
8404.29
8409.29
8414.13
8418.84
8423.45
8427.95
8432.37
8436.67
8440.82
8444.81
8448.65
8452.34
8455.86
8459.2
8462.33
8465.24
8467.93
8470.41
8472.67
8474.69
8476.44
8477.95
8479.22
8480.25
8481
8481.47
8481.65
8481.57
8481.22
8480.62
8479.73
8478.54
8477.06
8475.29
8473.26
8470.95
8468.38
8465.52
8462.38
8458.95
8455.27
8451.33
8447.12
8442.67
8437.97
8433.01
8427.8
8422.36
8416.69
8410.8
8404.7
8398.4
8391.91
8385.22
8378.33
8371.26
8364.04
8356.67
8349.15
8341.48
8333.68
8325.75
8317.73
8309.6
8301.39
8293.1
8284.74
8276.32
8267.84
8259.34
8250.81
8242.25
8233.68
8225.11
8216.56
8208.04
8199.55
8191.09
8182.68
8174.32
8166.02
8157.8
8149.66
8141.62
8133.66
8125.81
8118.06
8110.42
8102.9
8095.49
8088.22
8081.09
8074.08
8067.21
8060.48
8053.89
8047.44
8041.13
8034.98
8028.98
8023.12
8017.4
8011.84
8006.41
8001.14
7996.02
7991.04
7986.2
7981.5
7976.93
7972.51
7968.23
7964.07
7960.05
7956.15
7952.38
7948.73
7945.21
7941.8
7938.5
7935.32
7932.25
7929.28
7926.42
7923.65
7920.99
7918.42
7915.94
7913.54
7911.24
7909.02
7906.88
7904.82
7902.84
7900.93
7899.09
7897.33
7895.63
7894
7892.43
7890.93
7889.49
7888.1
7886.78
7885.51
7884.29
7883.13
7882.02
7880.96
7879.95
7878.99
7878.09
7877.23
7876.43
7875.69
7875
7874.36
7873.77
7873.24
7872.76
7872.34
7871.97
7871.65
7871.38
7871.17
7871
7870.89
7870.82
7870.8
7870.83
7870.9
7871.02
7871.18
7871.39
7871.63
7871.91
7872.24
7872.59
7872.99
7873.41
7873.87
7874.36
7874.88
7875.43
7876
7876.59
7877.21
7877.85
7878.51
7879.18
7879.88
7880.58
7881.31
7882.04
7882.79
7883.54
7884.3
7885.07
7885.85
7886.63
7887.41
7888.2
7888.99
7889.78
7890.57
7891.36
7892.14
7892.93
7893.71
7894.49
7895.26
7896.03
7896.79
7897.55
7898.3
7899.04
7899.77
7900.5
7901.22
7901.93
7902.62
7903.31
7903.98
7904.65
7905.3
7905.94
7906.56
7907.18
7907.77
7908.35
7908.93
7909.48
7910.03
7910.55
7911.04
7911.54
7912.05
7912.52
7912.98
7913.44
7913.85
7914.3
7914.68
7915.09
7915.44
7915.81
7916.14
7916.47
7916.81
7917.1
7917.41
7917.68
7917.88
7918.13
7918.49
7918.71
7919.01
7919.24
7919.48
7919.7
7919.9
7920.11
7920.27
7920.46
7920.59
7920.76
7920.86
7921.01
7921.12
7921.26
7921.32
7921.48
7921.37
7921.53
7921.71
7921.79
7921.79
7921.84
7921.88
7921.91
7921.93
7921.94
7921.95
7921.96
7921.96
7921.96
7921.96
7921.95
7921.94
7921.93
7921.91
7921.89
7921.86
7921.84
7921.8
7921.77
7921.73
7921.69
7921.64
7921.59
7921.54
7921.49
7921.43
7921.36
7921.3
7921.23
7921.15
7921.08
7921
7920.91
7920.83
7920.74
7920.64
7920.55
7920.44
7920.34
7920.23
7920.12
7920
7919.88
7919.76
7919.64
7919.51
7919.37
7919.24
7919.1
7918.95
7918.81
7918.66
7918.51
7918.35
7918.19
7918.03
7917.87
7917.7
7917.53
7917.35
7917.17
7916.99
7916.81
7916.62
7916.43
7916.23
7916.04
7915.84
7915.63
7915.42
7915.21
7915
7914.78
7914.56
7914.34
7914.11
7913.88
7913.65
7913.38
7913.24
7912.77
7593.29
7577.82
7566.21
7554.1
7542.4
7530.82
7519.43
7508.19
7497.13
7486.25
7475.54
7464.93
7454.5
7444.3
7434.36
7424.82
7415.97
7407.57
7399.38
7391.42
7383.61
7375.89
7368.31
7360.73
7353.32
7346.26
7339.45
7332.96
7326.64
7320.47
7314.38
7308.64
7303.24
7298.06
7293.13
7288.52
7284.29
7280.07
7276.1
7272.35
7268.82
7265.46
7262.16
7259.22
7256.84
7254.58
7252.41
7250.45
7248.68
7246.99
7245.63
7244.52
7243.66
7243.17
7242.71
7242.42
7242.32
7242.4
7242.64
7242.93
7243.41
7244.2
7245.27
7246.51
7247.58
7248.89
7250.43
7252.11
7253.96
7256.09
7258.36
7260.59
7262.82
7265.03
7267.39
7269.76
7272.08
7274.46
7276.89
7279.5
7281.94
7285.12
7288.66
7289.57
7286.93
7292.28
7301.72
7305.81
7310.3
7313.9
7318.89
7322.44
7327.59
7332.76
7337.42
7342.45
7347.12
7351.93
7356.91
7361.83
7367.88
7373.37
7378.46
7385.07
7386.47
7394.15
7407.75
7416.31
7426.67
7434.14
7443.15
7450.85
7459.91
7469.83
7479.2
7488.98
7498.58
7508.6
7519.36
7530.31
7540.63
7552.25
7560.01
7572.16
7588.99
7602.13
7616.07
7629.64
7643.04
7657.1
7672.04
7686.5
7701.42
7716.07
7731.07
7745.91
7760.98
7776.15
7791.39
7806.78
7822.18
7837.59
7853
7868.38
7883.8
7899.22
7914.64
7930
7945.22
7960.31
7975.39
7990.36
8005.29
8020.01
8034.53
8048.83
8063.03
8077.12
8090.97
8104.54
8117.84
8130.96
8143.89
8156.56
8168.9
8181.02
8192.93
8204.55
8215.82
8226.82
8237.57
8248.09
8258.29
8268.13
8277.7
8287.01
8296.03
8304.8
8313.23
8321.37
8329.29
8336.88
8344.16
8351.23
8358.05
8364.64
8371.04
8377.17
8383.08
8388.75
8394.2
8399.53
8404.72
8409.77
8414.66
8419.38
8423.96
8428.47
8432.89
8437.22
8441.38
8445.36
8449.22
8452.94
8456.5
8459.84
8462.97
8465.88
8468.6
8471.12
8473.4
8475.42
8477.15
8478.7
8480.01
8481.06
8481.81
8482.29
8482.48
8482.39
8482.05
8481.47
8480.59
8479.41
8477.93
8476.15
8474.13
8471.83
8469.27
8466.4
8463.26
8459.82
8456.13
8452.2
8448.01
8443.55
8438.82
8433.85
8428.62
8423.15
8417.48
8411.58
8405.5
8399.19
8392.66
8385.94
8379.04
8371.94
8364.69
8357.3
8349.77
8342.08
8334.25
8326.29
8318.25
8310.11
8301.87
8293.54
8285.13
8276.68
8268.2
8259.67
8251.1
8242.51
8233.89
8225.3
8216.72
8208.17
8199.65
8191.16
8182.72
8174.33
8166.01
8157.75
8149.59
8141.51
8133.54
8125.66
8117.89
8110.23
8102.68
8095.25
8087.96
8080.82
8073.79
8066.9
8060.16
8053.55
8047.09
8040.77
8034.61
8028.6
8022.73
8017.01
8011.43
8006.01
8000.73
7995.6
7990.61
7985.78
7981.08
7976.53
7972.1
7967.81
7963.66
7959.65
7955.75
7951.99
7948.34
7944.82
7941.42
7938.13
7934.94
7931.88
7928.92
7926.06
7923.3
7920.63
7918.07
7915.59
7913.21
7910.91
7908.7
7906.56
7904.51
7902.53
7900.63
7898.8
7897.04
7895.34
7893.72
7892.15
7890.65
7889.21
7887.83
7886.51
7885.24
7884.03
7882.87
7881.75
7880.7
7879.69
7878.73
7877.83
7876.98
7876.18
7875.44
7874.75
7874.11
7873.52
7872.99
7872.52
7872.1
7871.73
7871.41
7871.14
7870.93
7870.77
7870.66
7870.6
7870.58
7870.61
7870.69
7870.81
7870.98
7871.19
7871.44
7871.72
7872.05
7872.41
7872.81
7873.25
7873.71
7874.21
7874.73
7875.29
7875.86
7876.47
7877.09
7877.74
7878.4
7879.08
7879.78
7880.5
7881.23
7881.97
7882.72
7883.48
7884.25
7885.02
7885.81
7886.59
7887.38
7888.17
7888.97
7889.76
7890.56
7891.35
7892.15
7892.93
7893.72
7894.5
7895.28
7896.05
7896.82
7897.58
7898.33
7899.07
7899.82
7900.54
7901.26
7901.97
7902.67
7903.36
7904.03
7904.7
7905.35
7905.99
7906.61
7907.24
7907.83
7908.42
7908.99
7909.53
7910.06
7910.62
7911.12
7911.63
7912.11
7912.58
7913.04
7913.49
7913.92
7914.34
7914.73
7915.12
7915.51
7915.87
7916.23
7916.55
7916.88
7917.09
7917.39
7917.76
7918.03
7918.33
7918.59
7918.84
7919.09
7919.33
7919.56
7919.77
7919.98
7920.16
7920.34
7920.48
7920.65
7920.79
7920.96
7921.04
7921.24
7921.12
7921.32
7921.53
7921.62
7921.64
7921.68
7921.71
7921.74
7921.79
7921.84
7921.88
7921.9
7921.91
7921.93
7921.93
7921.94
7921.94
7921.94
7921.94
7921.93
7921.92
7921.91
7921.89
7921.87
7921.84
7921.81
7921.78
7921.74
7921.7
7921.66
7921.61
7921.56
7921.5
7921.44
7921.38
7921.31
7921.24
7921.17
7921.09
7921.01
7920.93
7920.84
7920.75
7920.65
7920.56
7920.45
7920.35
7920.24
7920.13
7920.01
7919.9
7919.77
7919.65
7919.52
7919.39
7919.25
7919.11
7918.97
7918.83
7918.68
7918.52
7918.37
7918.21
7918.05
7917.88
7917.72
7917.54
7917.37
7917.19
7917.01
7916.82
7916.64
7916.44
7916.25
7916.05
7915.85
7915.65
7915.44
7915.23
7915.01
7914.8
7914.58
7914.35
7914.12
7913.89
7913.67
7913.4
7913.26
7912.79
7592.06
7577.23
7565.21
7552.97
7541.16
7529.43
7517.91
7506.6
7495.51
7484.66
7473.99
7463.47
7453.15
7443.03
7433.21
7423.71
7414.6
7405.84
7397.45
7389.39
7381.56
7373.86
7366.25
7358.79
7351.47
7344.33
7337.53
7331.12
7324.83
7318.73
7312.76
7306.85
7301.37
7296.22
7291.61
7287.1
7282.64
7278.43
7274.47
7270.7
7267.17
7263.87
7260.74
7257.9
7255.32
7253
7250.85
7248.9
7247.18
7245.6
7244.12
7242.96
7242.34
7241.73
7241.24
7240.97
7240.9
7241.02
7241.28
7241.66
7242.22
7243.15
7244.26
7245.38
7246.51
7247.69
7249.21
7250.92
7252.77
7254.8
7257.25
7259.54
7261.86
7264.21
7266.48
7268.82
7271.27
7274
7276.64
7279.22
7281.82
7284.73
7287.97
7291.2
7295.16
7299.11
7302.78
7304.82
7303.83
7310.34
7319.71
7323.04
7328.65
7333.29
7337.56
7342.78
7348.34
7353.56
7359.04
7364.54
7370.16
7376.23
7382.26
7389.81
7395.97
7403.95
7408.78
7416.68
7418.65
7427.21
7441.94
7451.28
7461.03
7470.07
7479.07
7488.66
7499.35
7509.43
7520.22
7530.64
7541.96
7553.79
7565.93
7576.93
7589.35
7597.79
7611
7628.83
7642.67
7657.1
7671.31
7685.21
7699.97
7715.45
7730.46
7745.78
7760.69
7775.93
7790.93
7806.31
7821.73
7837.27
7852.76
7868.19
7883.6
7899.07
7914.6
7929.97
7945.2
7960.36
7975.49
7990.56
8005.55
8020.29
8034.77
8049.16
8063.4
8077.49
8091.42
8105.05
8118.36
8131.48
8144.39
8157.07
8169.46
8181.62
8193.57
8205.19
8216.45
8227.45
8238.21
8248.71
8258.96
8268.79
8278.36
8287.66
8296.67
8305.4
8313.89
8322.1
8329.98
8337.54
8344.81
8351.89
8358.71
8365.35
8371.75
8377.89
8383.8
8389.47
8394.93
8400.27
8405.45
8410.54
8415.48
8420.24
8424.84
8429.32
8433.74
8438.09
8442.28
8446.29
8450.13
8453.89
8457.46
8460.81
8463.95
8466.9
8469.65
8472.21
8474.5
8476.52
8478.28
8479.83
8481.16
8482.25
8483.03
8483.52
8483.7
8483.63
8483.31
8482.74
8481.88
8480.71
8479.26
8477.49
8475.43
8473.13
8470.54
8467.71
8464.58
8461.16
8457.44
8453.48
8449.28
8444.83
8440.1
8435.08
8429.83
8424.37
8418.69
8412.81
8406.69
8400.33
8393.78
8386.99
8380.06
8372.96
8365.7
8358.29
8350.7
8342.94
8335.08
8327.13
8319.05
8310.86
8302.57
8294.17
8285.72
8277.23
8268.71
8260.14
8251.52
8242.89
8234.24
8225.58
8216.95
8208.35
8199.8
8191.26
8182.77
8174.31
8165.97
8157.7
8149.49
8141.36
8133.32
8125.41
8117.62
8109.93
8102.34
8094.88
8087.57
8080.39
8073.34
8066.42
8059.64
8053.03
8046.56
8040.24
8034.05
8028.02
8022.12
8016.4
8010.83
8005.4
8000.12
7994.97
7989.98
7985.14
7980.46
7975.9
7971.47
7967.18
7963.05
7959.04
7955.14
7951.37
7947.74
7944.23
7940.83
7937.55
7934.36
7931.31
7928.36
7925.51
7922.76
7920.1
7917.54
7915.07
7912.7
7910.41
7908.21
7906.08
7904.03
7902.06
7900.16
7898.34
7896.59
7894.91
7893.28
7891.73
7890.23
7888.8
7887.42
7886.1
7884.83
7883.62
7882.46
7881.36
7880.3
7879.29
7878.34
7877.44
7876.59
7875.8
7875.05
7874.36
7873.73
7873.15
7872.62
7872.15
7871.73
7871.36
7871.05
7870.79
7870.58
7870.42
7870.31
7870.26
7870.25
7870.28
7870.37
7870.5
7870.67
7870.89
7871.14
7871.44
7871.78
7872.15
7872.56
7873
7873.47
7873.98
7874.52
7875.08
7875.67
7876.28
7876.91
7877.57
7878.24
7878.93
7879.65
7880.37
7881.11
7881.86
7882.62
7883.39
7884.17
7884.95
7885.74
7886.54
7887.33
7888.13
7888.94
7889.74
7890.54
7891.34
7892.14
7892.94
7893.73
7894.52
7895.3
7896.08
7896.85
7897.62
7898.37
7899.13
7899.86
7900.6
7901.32
7902.04
7902.74
7903.43
7904.11
7904.78
7905.44
7906.08
7906.72
7907.33
7907.91
7908.49
7909.09
7909.65
7910.19
7910.71
7911.22
7911.73
7912.21
7912.69
7913.14
7913.6
7914
7914.46
7914.84
7915.28
7915.6
7915.97
7916.23
7916.55
7916.97
7917.25
7917.61
7917.86
7918.16
7918.41
7918.71
7918.93
7919.21
7919.42
7919.67
7919.85
7920.05
7920.27
7920.42
7920.61
7920.72
7920.96
7920.84
7921.08
7921.3
7921.41
7921.44
7921.5
7921.55
7921.61
7921.68
7921.74
7921.79
7921.83
7921.87
7921.9
7921.93
7921.95
7921.96
7921.97
7921.98
7921.99
7921.99
7921.98
7921.97
7921.96
7921.94
7921.92
7921.9
7921.87
7921.84
7921.81
7921.77
7921.73
7921.69
7921.64
7921.59
7921.53
7921.47
7921.41
7921.34
7921.27
7921.2
7921.12
7921.04
7920.96
7920.87
7920.78
7920.68
7920.58
7920.48
7920.38
7920.27
7920.16
7920.04
7919.92
7919.8
7919.67
7919.55
7919.41
7919.28
7919.14
7919
7918.85
7918.7
7918.55
7918.39
7918.24
7918.07
7917.91
7917.74
7917.57
7917.39
7917.22
7917.03
7916.85
7916.66
7916.47
7916.27
7916.08
7915.88
7915.67
7915.46
7915.25
7915.04
7914.82
7914.6
7914.38
7914.15
7913.92
7913.69
7913.42
7913.28
7912.81
7591.18
7576.57
7563.91
7551.52
7539.46
7527.47
7515.74
7504.42
7493.33
7482.46
7471.82
7461.37
7451.15
7441.15
7431.39
7421.93
7412.77
7403.92
7395.36
7387.09
7379.06
7371.26
7363.65
7356.23
7348.99
7341.99
7335.21
7328.67
7322.39
7316.32
7310.45
7304.73
7299.3
7294.25
7289.47
7284.79
7280.34
7276.14
7272.17
7268.44
7264.93
7261.64
7258.61
7255.82
7253.2
7250.79
7248.68
7246.76
7245.08
7243.59
7242.29
7241.19
7240.3
7239.68
7239.22
7238.99
7238.97
7239.13
7239.45
7239.95
7240.65
7241.53
7242.56
7243.72
7245.03
7246.41
7247.71
7249.34
7251.22
7253.44
7255.91
7258.2
7260.57
7263.03
7265.52
7267.98
7270.52
7273.31
7276.19
7279.06
7282.05
7285.12
7288.23
7291.32
7294.62
7298.84
7303.16
7307.39
7311.88
7316.33
7318.88
7318.28
7325.39
7335.34
7339.27
7344.62
7349.87
7354.2
7360.19
7366.45
7372.73
7379.05
7385.17
7391.7
7398.05
7405.23
7413.57
7420.74
7429.01
7435.12
7443.3
7445.65
7454.74
7470.07
7479.8
7490.26
7500.03
7509.96
7520.4
7532.19
7543.27
7554.94
7566.35
7578.37
7591.12
7604.26
7616.22
7629.52
7638.45
7652.09
7670.95
7685.32
7700.85
7715.04
7729.81
7744.01
7759.21
7775.02
7790.26
7805.69
7821.1
7836.56
7852.24
7867.92
7883.4
7898.9
7914.46
7929.9
7945.13
7960.41
7975.62
7990.88
8005.87
8020.59
8035.13
8049.61
8063.9
8078.1
8092.06
8105.73
8119.14
8132.23
8145.14
8157.82
8170.26
8182.53
8194.46
8206.07
8217.31
8228.34
8239.1
8249.58
8259.87
8269.8
8279.32
8288.58
8297.6
8306.34
8314.89
8323.06
8330.93
8338.44
8345.76
8352.84
8359.72
8366.4
8372.79
8378.93
8384.86
8390.53
8396.01
8401.37
8406.58
8411.69
8416.68
8421.46
8426.12
8430.57
8434.99
8439.33
8443.57
8447.62
8451.51
8455.16
8458.71
8462.09
8465.3
8468.36
8471.14
8473.68
8475.98
8477.99
8479.8
8481.39
8482.75
8483.86
8484.66
8485.14
8485.34
8485.31
8485.03
8484.47
8483.59
8482.38
8480.95
8479.27
8477.27
8474.93
8472.29
8469.41
8466.26
8462.84
8459.19
8455.25
8451.04
8446.56
8441.79
8436.74
8431.49
8426.01
8420.32
8414.41
8408.25
8401.83
8395.22
8388.44
8381.47
8374.34
8367.07
8359.59
8351.94
8344.12
8336.21
8328.19
8320.08
8311.84
8303.47
8295.02
8286.52
8277.97
8269.4
8260.76
8252.08
8243.39
8234.68
8225.95
8217.25
8208.59
8199.98
8191.38
8182.81
8174.31
8165.9
8157.58
8149.33
8141.15
8133.05
8125.08
8117.23
8109.51
8101.88
8094.4
8087.05
8079.82
8072.71
8065.77
8058.97
8052.35
8045.85
8039.5
8033.29
8027.23
8021.33
8015.59
8010.02
8004.58
7999.29
7994.14
7989.14
7984.3
7979.61
7975.04
7970.63
7966.35
7962.22
7958.22
7954.33
7950.57
7946.95
7943.45
7940.05
7936.76
7933.6
7930.55
7927.61
7924.78
7922.03
7919.38
7916.83
7914.38
7912.02
7909.74
7907.55
7905.43
7903.38
7901.42
7899.54
7897.73
7896
7894.32
7892.7
7891.15
7889.66
7888.23
7886.86
7885.55
7884.29
7883.08
7881.92
7880.81
7879.76
7878.75
7877.81
7876.91
7876.07
7875.28
7874.54
7873.85
7873.22
7872.64
7872.12
7871.65
7871.24
7870.87
7870.57
7870.31
7870.1
7869.95
7869.85
7869.8
7869.8
7869.84
7869.94
7870.08
7870.26
7870.48
7870.75
7871.06
7871.41
7871.79
7872.21
7872.66
7873.15
7873.67
7874.22
7874.8
7875.4
7876.02
7876.67
7877.34
7878.03
7878.73
7879.46
7880.2
7880.95
7881.71
7882.48
7883.27
7884.06
7884.86
7885.66
7886.47
7887.28
7888.09
7888.9
7889.71
7890.53
7891.34
7892.15
7892.95
7893.76
7894.55
7895.35
7896.13
7896.91
7897.68
7898.45
7899.2
7899.95
7900.68
7901.42
7902.13
7902.84
7903.54
7904.22
7904.9
7905.55
7906.19
7906.81
7907.45
7908.05
7908.63
7909.2
7909.75
7910.3
7910.83
7911.35
7911.85
7912.33
7912.8
7913.27
7913.72
7914.16
7914.57
7914.9
7915.28
7915.73
7916.09
7916.47
7916.79
7917.13
7917.42
7917.73
7918.03
7918.31
7918.61
7918.85
7919.13
7919.33
7919.57
7919.81
7920.01
7920.25
7920.41
7920.57
7920.51
7920.77
7921.03
7921.16
7921.2
7921.27
7921.33
7921.4
7921.48
7921.55
7921.62
7921.69
7921.74
7921.79
7921.84
7921.88
7921.91
7921.94
7921.96
7921.98
7921.99
7922
7922.01
7922.01
7922
7922
7921.99
7921.97
7921.96
7921.93
7921.91
7921.88
7921.84
7921.81
7921.77
7921.72
7921.67
7921.62
7921.56
7921.5
7921.44
7921.38
7921.31
7921.23
7921.15
7921.07
7920.99
7920.9
7920.81
7920.72
7920.62
7920.52
7920.41
7920.3
7920.19
7920.07
7919.96
7919.83
7919.71
7919.58
7919.45
7919.31
7919.17
7919.03
7918.88
7918.74
7918.58
7918.43
7918.27
7918.11
7917.94
7917.77
7917.6
7917.43
7917.25
7917.07
7916.88
7916.69
7916.5
7916.31
7916.11
7915.91
7915.7
7915.5
7915.29
7915.07
7914.85
7914.63
7914.41
7914.18
7913.95
7913.72
7913.45
7913.32
7912.84
7589.2
7574.97
7562.06
7549.52
7537.21
7524.68
7512.39
7501.5
7490.59
7479.66
7468.97
7458.53
7448.3
7438.33
7428.59
7419.13
7409.97
7401.07
7392.47
7384.15
7376.04
7368.17
7360.54
7353.11
7345.9
7338.92
7332.13
7325.6
7319.33
7313.27
7307.45
7301.86
7296.52
7291.43
7286.54
7281.87
7277.44
7273.22
7269.21
7265.49
7262.09
7258.91
7255.86
7253.08
7250.48
7248.08
7245.85
7244
7242.46
7241.02
7239.74
7238.73
7237.67
7236.52
7235.96
7236.44
7236.55
7236.76
7237.14
7237.7
7238.44
7239.35
7240.41
7241.62
7243.01
7244.56
7246.15
7247.61
7249.31
7251.78
7254.2
7256.55
7259.01
7261.57
7264.2
7266.91
7269.73
7272.53
7275.26
7278.23
7281.77
7285.18
7288.64
7292.17
7295.74
7299.42
7303.34
7307.33
7312.01
7316.9
7321.5
7326.48
7331.39
7334.08
7333.71
7341.89
7352.44
7356.86
7362.52
7368.47
7373.67
7380.99
7387.86
7395.15
7401.71
7409.34
7415.67
7423.79
7430.79
7439.22
7447.3
7455.7
7462.8
7471.72
7474.67
7484.37
7500.6
7511.02
7522.35
7532.97
7543.88
7555.15
7567.8
7579.62
7592.14
7604.48
7617.34
7630.95
7644.63
7656.99
7670.98
7680.25
7695.03
7714.09
7729.06
7745.09
7759.52
7774.88
7789.22
7804.66
7820.48
7836.09
7851.93
7867.59
7883.14
7898.77
7914.37
7929.73
7945.14
7960.53
7976.02
7991.24
8006.28
8021.12
8035.69
8050.2
8064.65
8078.93
8092.86
8106.57
8120.04
8133.24
8146.11
8158.81
8171.39
8183.64
8195.56
8207.2
8218.51
8229.48
8240.26
8250.87
8261.11
8271.02
8280.6
8289.81
8298.82
8307.69
8316.17
8324.34
8332.18
8339.7
8347.04
8354.24
8361.17
8367.8
8374.19
8380.33
8386.26
8392.03
8397.57
8402.91
8408.17
8413.31
8418.27
8423.11
8427.8
8432.34
8436.7
8441.06
8445.28
8449.34
8453.25
8456.91
8460.46
8463.86
8467.12
8470.2
8473
8475.56
8477.81
8479.89
8481.77
8483.46
8484.84
8485.91
8486.65
8487.17
8487.45
8487.52
8487.24
8486.64
8485.71
8484.56
8483.13
8481.48
8479.49
8477.19
8474.56
8471.62
8468.47
8465.04
8461.37
8457.46
8453.23
8448.73
8443.95
8438.87
8433.57
8428.09
8422.4
8416.42
8410.16
8403.72
8397.09
8390.27
8383.3
8376.14
8368.77
8361.22
8353.47
8345.62
8337.64
8329.56
8321.4
8313.08
8304.62
8296.09
8287.53
8278.94
8270.26
8261.53
8252.75
8243.97
8235.2
8226.42
8217.64
8208.9
8200.19
8191.51
8182.85
8174.3
8165.83
8157.43
8149.1
8140.86
8132.7
8124.66
8116.74
8108.97
8101.31
8093.78
8086.37
8079.08
8071.93
8064.95
8058.15
8051.47
8044.94
8038.54
8032.32
8026.25
8020.35
8014.6
8009
8003.55
7998.24
7993.09
7988.09
7983.26
7978.56
7974
7969.56
7965.31
7961.18
7957.18
7953.3
7949.54
7945.94
7942.45
7939.07
7935.8
7932.63
7929.61
7926.68
7923.85
7921.12
7918.49
7915.96
7913.52
7911.16
7908.89
7906.71
7904.62
7902.6
7900.65
7898.77
7896.97
7895.24
7893.57
7891.97
7890.42
7888.95
7887.53
7886.16
7884.84
7883.59
7882.39
7881.23
7880.13
7879.08
7878.09
7877.14
7876.25
7875.41
7874.62
7873.89
7873.21
7872.58
7872.01
7871.48
7871.02
7870.61
7870.26
7869.96
7869.7
7869.51
7869.36
7869.27
7869.23
7869.24
7869.29
7869.4
7869.55
7869.74
7869.98
7870.26
7870.58
7870.95
7871.35
7871.78
7872.25
7872.75
7873.29
7873.86
7874.45
7875.07
7875.71
7876.38
7877.06
7877.77
7878.49
7879.23
7879.99
7880.76
7881.53
7882.32
7883.12
7883.93
7884.74
7885.56
7886.38
7887.21
7888.03
7888.85
7889.68
7890.51
7891.33
7892.15
7892.97
7893.78
7894.59
7895.38
7896.19
7896.97
7897.76
7898.52
7899.29
7900.04
7900.79
7901.52
7902.25
7902.97
7903.67
7904.34
7905.02
7905.7
7906.35
7906.98
7907.59
7908.19
7908.79
7909.36
7909.93
7910.47
7911
7911.51
7912.03
7912.51
7913.01
7913.45
7913.84
7914.25
7914.75
7915.13
7915.56
7915.9
7916.28
7916.61
7916.95
7917.29
7917.59
7917.94
7918.19
7918.52
7918.72
7919.03
7919.25
7919.55
7919.71
7920.06
7919.98
7920.31
7920.6
7920.73
7920.81
7920.9
7920.99
7921.07
7921.17
7921.27
7921.37
7921.45
7921.53
7921.6
7921.66
7921.72
7921.77
7921.83
7921.87
7921.91
7921.95
7921.98
7922
7922.02
7922.03
7922.05
7922.05
7922.05
7922.05
7922.04
7922.03
7922.02
7922
7921.98
7921.95
7921.92
7921.89
7921.85
7921.81
7921.77
7921.72
7921.67
7921.61
7921.55
7921.49
7921.42
7921.35
7921.28
7921.2
7921.12
7921.04
7920.95
7920.86
7920.76
7920.66
7920.56
7920.45
7920.35
7920.23
7920.12
7920
7919.88
7919.75
7919.62
7919.49
7919.35
7919.21
7919.07
7918.93
7918.78
7918.63
7918.47
7918.31
7918.15
7917.98
7917.81
7917.64
7917.47
7917.29
7917.11
7916.92
7916.73
7916.54
7916.35
7916.15
7915.95
7915.74
7915.54
7915.33
7915.11
7914.89
7914.67
7914.45
7914.22
7913.99
7913.77
7913.49
7913.36
7912.89
7586.81
7572.71
7559.68
7546.94
7534.19
7521.13
7508.99
7497.63
7487.25
7476.33
7465.56
7455.07
7444.82
7434.84
7425.13
7415.68
7406.48
7397.54
7388.9
7380.5
7372.34
7364.43
7356.79
7349.4
7342.22
7335.23
7328.44
7321.94
7315.65
7309.55
7303.7
7298.14
7292.91
7287.9
7282.99
7278.36
7273.92
7269.59
7265.22
7261.39
7258.7
7255.56
7252.54
7249.73
7247.09
7244.4
7241.62
7240
7239.22
7237.93
7236.68
7235.53
7234.16
7233.21
7232.77
7232.55
7233.34
7233.87
7234.34
7234.97
7235.76
7236.71
7237.82
7239.1
7240.55
7242.15
7243.91
7245.79
7247.71
7249.59
7251.66
7254.26
7257.08
7259.79
7262.58
7265.43
7268.42
7271.44
7274.29
7277.38
7280.8
7284.73
7288.52
7292.35
7296.36
7300.26
7304.1
7308.36
7313.21
7317.64
7322.1
7326.89
7332.05
7337.07
7342.68
7348.23
7351.37
7351.4
7360.46
7371.39
7376.53
7383.31
7390.46
7396.27
7404.11
7411.83
7419.54
7427.15
7435.17
7442.85
7450.82
7458.66
7467.14
7476.14
7484.98
7493.09
7502.6
7506.13
7516.41
7533.75
7545.14
7557.58
7569.1
7580.75
7592.79
7606.28
7619.09
7632.5
7645.49
7658.98
7673.59
7687.04
7701.59
7714.44
7728.77
7738.97
7753.77
7773.57
7788.89
7804.68
7819.97
7834.89
7850.7
7867.04
7882.78
7898.58
7914.2
7929.57
7945.07
7960.83
7976.32
7991.61
8006.74
8021.67
8036.41
8051.13
8065.64
8079.88
8093.82
8107.57
8121.09
8134.43
8147.44
8160.21
8172.73
8184.96
8196.89
8208.59
8219.97
8231.05
8241.87
8252.41
8262.62
8272.53
8282.11
8291.42
8300.53
8309.32
8317.79
8325.95
8333.73
8341.34
8348.87
8356.06
8362.95
8369.6
8376
8382.08
8387.99
8393.91
8399.62
8405.06
8410.34
8415.33
8420.23
8425.12
8429.94
8434.54
8438.99
8443.27
8447.35
8451.44
8455.42
8459.16
8462.67
8466.13
8469.44
8472.49
8475.3
8477.8
8480.12
8482.26
8484.25
8485.94
8487.31
8488.42
8489.19
8489.71
8490.01
8490.1
8489.85
8489.28
8488.36
8487.21
8485.84
8484.17
8482.17
8479.87
8477.29
8474.36
8471.14
8467.71
8464.02
8460.11
8455.87
8451.34
8446.55
8441.44
8436.11
8430.63
8424.86
8418.85
8412.57
8406.04
8399.36
8392.52
8385.5
8378.25
8370.81
8363.19
8355.35
8347.42
8339.39
8331.26
8322.98
8314.57
8306.04
8297.39
8288.76
8280.06
8271.29
8262.46
8253.57
8244.65
8235.81
8226.96
8218.1
8209.25
8200.44
8191.64
8182.89
8174.27
8165.72
8157.22
8148.81
8140.49
8132.28
8124.13
8116.15
8108.31
8100.59
8092.99
8085.52
8078.2
8070.99
8063.97
8057.11
8050.4
8043.83
8037.4
8031.15
8025.08
8019.15
8013.38
8007.76
8002.29
7996.98
7991.83
7986.84
7981.99
7977.28
7972.73
7968.31
7964.04
7959.92
7955.92
7952.06
7948.31
7944.72
7941.23
7937.87
7934.62
7931.48
7928.47
7925.55
7922.74
7920.02
7917.41
7914.9
7912.47
7910.13
7907.88
7905.72
7903.64
7901.63
7899.7
7897.84
7896.05
7894.33
7892.67
7891.08
7889.55
7888.08
7886.66
7885.31
7884
7882.75
7881.55
7880.4
7879.31
7878.27
7877.28
7876.33
7875.45
7874.62
7873.83
7873.11
7872.43
7871.81
7871.24
7870.73
7870.27
7869.86
7869.51
7869.22
7868.98
7868.79
7868.65
7868.57
7868.54
7868.56
7868.62
7868.74
7868.91
7869.12
7869.37
7869.67
7870.01
7870.39
7870.81
7871.26
7871.75
7872.27
7872.83
7873.41
7874.02
7874.66
7875.33
7876.02
7876.73
7877.45
7878.2
7878.96
7879.73
7880.52
7881.32
7882.13
7882.95
7883.78
7884.61
7885.44
7886.29
7887.13
7887.97
7888.82
7889.66