/*--------------------------------*- C++ -*----------------------------------*\
| =========                 |                                                 |
| \\      /  F ield         | OpenFOAM: The Open Source CFD Toolbox           |
|  \\    /   O peration     | Version:  v2006                                 |
|   \\  /    A nd           | Website:  www.openfoam.com                      |
|    \\/     M anipulation  |                                                 |
\*---------------------------------------------------------------------------*/
FoamFile
{
    version     2.0;
    format      ascii;
    class       surfaceScalarField;
    location    "5.9";
    object      phi;
}
// * * * * * * * * * * * * * * * * * * * * * * * * * * * * * * * * * * * * * //

dimensions      [0 3 -1 0 0 0 0];
oriented        oriented;


internalField   nonuniform List<scalar> 
65390
(
-7.82517e-05
8.42486e-06
-7.7943e-05
-3.08093e-07
-7.63708e-05
-1.5716e-06
-7.20705e-05
-4.29978e-06
-6.70095e-05
-5.0606e-06
-6.14166e-05
-5.59261e-06
-5.62063e-05
-5.21001e-06
-5.17667e-05
-4.4394e-06
-4.78472e-05
-3.9194e-06
-4.39388e-05
-3.90821e-06
-3.9685e-05
-4.25368e-06
-3.53248e-05
-4.36017e-06
-3.13295e-05
-3.99524e-06
-2.85511e-05
-2.77834e-06
-2.73623e-05
-1.18871e-06
-2.80331e-05
6.70862e-07
-3.09221e-05
2.88896e-06
-3.56265e-05
4.70445e-06
-4.16673e-05
6.04081e-06
-4.96398e-05
7.97261e-06
-5.88085e-05
9.16873e-06
-6.53917e-05
6.58314e-06
-6.84965e-05
3.10489e-06
-7.05723e-05
2.07574e-06
-7.2537e-05
1.96476e-06
-7.38886e-05
1.35157e-06
-7.45735e-05
6.84944e-07
-7.51205e-05
5.4699e-07
-7.5778e-05
6.57427e-07
-7.66081e-05
8.30173e-07
-7.7664e-05
1.05585e-06
-7.87392e-05
1.07512e-06
-7.96631e-05
9.23895e-07
-8.04046e-05
7.41462e-07
-8.11791e-05
7.74443e-07
-8.20724e-05
8.93285e-07
-8.2797e-05
7.24549e-07
-8.29327e-05
1.35678e-07
-8.25293e-05
-4.03427e-07
-8.20395e-05
-4.89888e-07
-8.18865e-05
-1.52989e-07
-8.23607e-05
4.74119e-07
-8.30763e-05
7.15577e-07
-8.37425e-05
6.66125e-07
-8.40202e-05
2.77627e-07
-8.3587e-05
-4.33237e-07
-8.28769e-05
-7.10092e-07
-8.23269e-05
-5.50073e-07
-8.222e-05
-1.06876e-07
-8.23639e-05
1.43917e-07
-8.25442e-05
1.80217e-07
-8.2585e-05
4.08203e-08
-8.22503e-05
-3.3469e-07
-8.16591e-05
-5.91169e-07
-8.10207e-05
-6.38406e-07
-8.03363e-05
-6.84402e-07
-7.94382e-05
-8.98023e-07
-7.83243e-05
-1.11395e-06
-7.71372e-05
-1.18699e-06
-7.61471e-05
-9.90097e-07
-7.56625e-05
-4.84625e-07
-7.54935e-05
-1.68905e-07
-7.52427e-05
-2.50815e-07
-7.45935e-05
-6.49135e-07
-7.35957e-05
-9.97797e-07
-7.26938e-05
-9.01944e-07
-7.21488e-05
-5.44962e-07
-7.1597e-05
-5.51755e-07
-7.05715e-05
-1.02552e-06
-6.8882e-05
-1.68947e-06
-6.66609e-05
-2.22108e-06
-6.39193e-05
-2.74154e-06
-6.07652e-05
-3.15416e-06
-5.7073e-05
-3.69218e-06
-5.27249e-05
-4.34807e-06
-4.73352e-05
-5.38964e-06
-4.06352e-05
-6.70001e-06
-3.1934e-05
-8.70121e-06
-2.48185e-05
-7.11553e-06
-2.15062e-05
-3.31229e-06
-1.94974e-05
-2.0088e-06
-1.99588e-05
4.61414e-07
-2.10555e-05
1.09671e-06
-2.23625e-05
1.30708e-06
-2.42819e-05
1.91933e-06
-2.58628e-05
1.58098e-06
-2.68457e-05
9.82857e-07
-2.75433e-05
6.97617e-07
-2.80734e-05
5.30105e-07
-2.8323e-05
2.49564e-07
-2.82862e-05
-3.68262e-08
-2.81853e-05
-1.00869e-07
-2.79602e-05
-2.25135e-07
-2.76346e-05
-3.25581e-07
-2.71966e-05
-4.37968e-07
-2.66526e-05
-5.43956e-07
-2.56428e-05
-1.00986e-06
-2.4228e-05
-1.41471e-06
-2.21672e-05
-2.06087e-06
-2.079e-05
-1.37713e-06
-2.04988e-05
-2.9116e-07
-2.04365e-05
-6.2289e-08
-2.07269e-05
2.90384e-07
-2.09166e-05
1.89703e-07
-2.14645e-05
5.47895e-07
-2.18613e-05
3.96815e-07
-2.19492e-05
8.7973e-08
-2.19929e-05
4.37153e-08
-2.19638e-05
-2.90914e-08
-2.1965e-05
1.16521e-09
-2.19063e-05
-5.86864e-08
-2.18657e-05
-4.05243e-08
-2.17045e-05
-1.61185e-07
-2.13726e-05
-3.31933e-07
-2.06504e-05
-7.22142e-07
-1.96133e-05
-1.03711e-06
-1.80418e-05
-1.57147e-06
-1.69355e-05
-1.10628e-06
-1.67045e-05
-2.31005e-07
-1.67408e-05
3.64019e-08
-1.69743e-05
2.33472e-07
-1.70804e-05
1.06164e-07
-1.74267e-05
3.463e-07
-1.76908e-05
2.64113e-07
-1.77779e-05
8.71138e-08
-1.79039e-05
1.26004e-07
-1.80099e-05
1.06099e-07
-1.80964e-05
8.64607e-08
-1.82094e-05
1.13041e-07
-1.8298e-05
8.86582e-08
-1.83579e-05
5.99204e-08
-1.84149e-05
5.70032e-08
-1.84491e-05
3.41948e-08
-1.84762e-05
2.71064e-08
-1.84993e-05
2.31408e-08
-1.8518e-05
1.87299e-08
-1.85288e-05
1.07948e-08
-1.85268e-05
-1.93822e-09
-1.85219e-05
-4.8301e-09
-1.85073e-05
-1.45952e-08
-1.84842e-05
-2.31478e-08
-1.84501e-05
-3.40363e-08
-1.8406e-05
-4.41103e-08
-1.83563e-05
-4.95936e-08
-1.83013e-05
-5.5051e-08
-1.82357e-05
-6.5527e-08
-1.81567e-05
-7.89931e-08
-1.80618e-05
-9.48943e-08
-1.79542e-05
-1.07596e-07
-1.78395e-05
-1.14681e-07
-1.7721e-05
-1.18415e-07
-1.75955e-05
-1.25451e-07
-1.74539e-05
-1.41595e-07
-1.72932e-05
-1.60696e-07
-1.71204e-05
-1.72799e-07
-1.69402e-05
-1.80141e-07
-1.67522e-05
-1.88063e-07
-1.65542e-05
-1.97909e-07
-1.63427e-05
-2.11545e-07
-1.61187e-05
-2.23948e-07
-1.58838e-05
-2.34859e-07
-1.56362e-05
-2.47646e-07
-1.53753e-05
-2.60824e-07
-1.51015e-05
-2.73819e-07
-1.48202e-05
-2.81294e-07
-1.45318e-05
-2.8835e-07
-1.42264e-05
-3.05434e-07
-1.39026e-05
-3.23792e-07
-1.35693e-05
-3.33293e-07
-1.32328e-05
-3.36478e-07
-1.28848e-05
-3.47929e-07
-1.25143e-05
-3.70567e-07
-1.21262e-05
-3.8808e-07
-1.173e-05
-3.96156e-07
-1.13307e-05
-3.99314e-07
-1.0921e-05
-4.09697e-07
-1.04881e-05
-4.32871e-07
-1.00371e-05
-4.5097e-07
-9.57755e-06
-4.59582e-07
-9.11088e-06
-4.66675e-07
-8.63019e-06
-4.80688e-07
-8.13242e-06
-4.97775e-07
-7.63105e-06
-5.01371e-07
-7.12795e-06
-5.03102e-07
-6.61347e-06
-5.14487e-07
-6.08169e-06
-5.31778e-07
-5.53463e-06
-5.47065e-07
-4.98574e-06
-5.48903e-07
-4.44075e-06
-5.44991e-07
-3.89806e-06
-5.42698e-07
-3.35521e-06
-5.42856e-07
-2.80964e-06
-5.45585e-07
-2.26321e-06
-5.46432e-07
-1.72139e-06
-5.41832e-07
-1.19446e-06
-5.26933e-07
-6.81018e-07
-5.13452e-07
-1.79171e-07
-5.01855e-07
3.13594e-07
-4.92772e-07
8.01698e-07
-4.88112e-07
1.28376e-06
-4.82066e-07
1.75357e-06
-4.69818e-07
2.20462e-06
-4.51063e-07
2.64007e-06
-4.35454e-07
3.06624e-06
-4.26172e-07
3.48764e-06
-4.2141e-07
3.90465e-06
-4.17006e-07
4.31207e-06
-4.07427e-07
4.70658e-06
-3.94509e-07
5.08876e-06
-3.82181e-07
5.46371e-06
-3.74954e-07
5.83435e-06
-3.70646e-07
6.19572e-06
-3.61369e-07
6.54263e-06
-3.46911e-07
6.87853e-06
-3.35895e-07
7.20987e-06
-3.31331e-07
7.53727e-06
-3.27399e-07
7.8579e-06
-3.20626e-07
8.16736e-06
-3.09456e-07
8.46213e-06
-2.94755e-07
8.74641e-06
-2.84277e-07
9.02485e-06
-2.7843e-07
9.29946e-06
-2.74598e-07
9.56794e-06
-2.68464e-07
9.82692e-06
-2.58967e-07
1.0073e-05
-2.46096e-07
1.03078e-05
-2.34785e-07
1.05347e-05
-2.26833e-07
1.07545e-05
-2.19821e-07
1.09685e-05
-2.13934e-07
1.11752e-05
-2.06707e-07
1.13713e-05
-1.96088e-07
1.1555e-05
-1.83699e-07
1.17298e-05
-1.74717e-07
1.18973e-05
-1.67532e-07
1.20573e-05
-1.59936e-07
1.22098e-05
-1.5254e-07
1.23541e-05
-1.44225e-07
1.24883e-05
-1.34211e-07
1.26128e-05
-1.24442e-07
1.27287e-05
-1.15902e-07
1.28357e-05
-1.06946e-07
1.29332e-05
-9.75071e-08
1.30222e-05
-8.89412e-08
1.31037e-05
-8.15411e-08
1.31782e-05
-7.44473e-08
1.32449e-05
-6.66695e-08
1.33017e-05
-5.67522e-08
1.33461e-05
-4.43764e-08
1.33831e-05
-3.69926e-08
1.3415e-05
-3.18452e-08
1.34394e-05
-2.44174e-08
1.34551e-05
-1.5644e-08
1.3461e-05
-5.91211e-09
1.34575e-05
3.47565e-09
1.34466e-05
1.0953e-08
1.34285e-05
1.81588e-08
1.3403e-05
2.5493e-08
1.33702e-05
3.27859e-08
1.33289e-05
4.13225e-08
1.32792e-05
4.96984e-08
1.3222e-05
5.7225e-08
1.31584e-05
6.37013e-08
1.3089e-05
6.93448e-08
1.30128e-05
7.62602e-08
1.29279e-05
8.49211e-08
1.28337e-05
9.41657e-08
1.27318e-05
1.01962e-07
1.26259e-05
1.05928e-07
1.25158e-05
1.10041e-07
1.23998e-05
1.16072e-07
1.22775e-05
1.22292e-07
1.21479e-05
1.29569e-07
1.20101e-05
1.37801e-07
1.18668e-05
1.43336e-07
1.17196e-05
1.47172e-07
1.15678e-05
1.51817e-07
1.14111e-05
1.56775e-07
1.12496e-05
1.6147e-07
1.1084e-05
1.6562e-07
1.09147e-05
1.69313e-07
1.07399e-05
1.74802e-07
1.05581e-05
1.81818e-07
1.03728e-05
1.8535e-07
1.01863e-05
1.86515e-07
9.99736e-06
1.88947e-07
9.80506e-06
1.92308e-07
9.60963e-06
1.95452e-07
9.41062e-06
1.99024e-07
9.20728e-06
2.03348e-07
9.00117e-06
2.06123e-07
8.79416e-06
2.07017e-07
8.58638e-06
2.0779e-07
8.37717e-06
2.09224e-07
8.16647e-06
2.10707e-07
7.9529e-06
2.1357e-07
7.73677e-06
2.16137e-07
7.52088e-06
2.15893e-07
7.30505e-06
2.15827e-07
7.08922e-06
2.15827e-07
6.87417e-06
2.1505e-07
6.65791e-06
2.16255e-07
6.44076e-06
2.17153e-07
6.22546e-06
2.153e-07
6.01193e-06
2.1352e-07
5.80011e-06
2.11822e-07
5.58888e-06
2.11229e-07
5.37945e-06
2.09428e-07
5.17294e-06
2.06503e-07
4.97008e-06
2.0286e-07
4.77069e-06
1.99392e-07
4.57284e-06
1.97845e-07
4.37667e-06
1.96174e-07
4.18404e-06
1.92629e-07
3.99675e-06
1.87282e-07
3.81422e-06
1.82528e-07
3.63438e-06
1.79843e-07
3.45723e-06
1.77145e-07
3.28428e-06
1.72947e-07
3.11523e-06
1.69045e-07
2.94984e-06
1.65387e-07
2.78676e-06
1.63076e-07
2.62508e-06
1.61682e-07
2.46623e-06
1.58845e-07
2.31049e-06
1.5574e-07
2.15647e-06
1.54015e-07
2.00232e-06
1.54149e-07
1.84779e-06
1.54527e-07
1.6946e-06
1.53182e-07
1.54304e-06
1.51558e-07
1.3921e-06
1.50939e-07
1.24029e-06
1.51803e-07
1.08677e-06
1.53522e-07
9.33627e-07
1.53137e-07
7.828e-07
1.50826e-07
6.34915e-07
1.47884e-07
4.89662e-07
1.45252e-07
3.46702e-07
1.4296e-07
2.06082e-07
1.4062e-07
6.79951e-08
1.38087e-07
-6.62338e-08
1.3423e-07
-1.9582e-07
1.29588e-07
-3.209e-07
1.25082e-07
-4.41652e-07
1.20755e-07
-5.58898e-07
1.17249e-07
-6.7245e-07
1.13555e-07
-7.80983e-07
1.08536e-07
-8.84081e-07
1.03103e-07
-9.82013e-07
9.79371e-08
-1.07555e-06
9.35378e-08
-1.16505e-06
8.95144e-08
-1.25002e-06
8.49739e-08
-1.32948e-06
7.94597e-08
-1.40343e-06
7.3961e-08
-1.47298e-06
6.95587e-08
-1.53805e-06
6.50783e-08
-1.59794e-06
5.98971e-08
-1.65267e-06
5.473e-08
-1.70246e-06
4.98009e-08
-1.74742e-06
4.49649e-08
-1.78745e-06
4.00345e-08
-1.8226e-06
3.51593e-08
-1.85296e-06
3.03656e-08
-1.87858e-06
2.56304e-08
-1.89979e-06
2.12112e-08
-1.91665e-06
1.68696e-08
-1.92912e-06
1.24803e-08
-1.93695e-06
7.83216e-09
-1.94023e-06
3.28432e-09
-1.93916e-06
-1.05678e-09
-1.93418e-06
-4.97343e-09
-1.9254e-06
-8.77464e-09
-1.91266e-06
-1.27391e-08
-1.89577e-06
-1.68792e-08
-1.87496e-06
-2.0806e-08
-1.85066e-06
-2.43e-08
-1.82305e-06
-2.75969e-08
-1.79215e-06
-3.08986e-08
-1.75812e-06
-3.40243e-08
-1.72132e-06
-3.67946e-08
-1.68198e-06
-3.93341e-08
-1.63979e-06
-4.21806e-08
-1.59473e-06
-4.50572e-08
-1.54691e-06
-4.78116e-08
-1.49686e-06
-5.00498e-08
-1.44477e-06
-5.20791e-08
-1.39086e-06
-5.39061e-08
-1.33544e-06
-5.54129e-08
-1.27829e-06
-5.71435e-08
-1.21938e-06
-5.89044e-08
-1.15906e-06
-6.03089e-08
-1.09801e-06
-6.10487e-08
-1.03604e-06
-6.19598e-08
-9.72996e-07
-6.3037e-08
-9.09018e-07
-6.39698e-08
-8.44604e-07
-6.44059e-08
-7.79657e-07
-6.4938e-08
-7.14486e-07
-6.51616e-08
-6.49517e-07
-6.49598e-08
-5.8473e-07
-6.47774e-08
-5.20077e-07
-6.46435e-08
-4.55321e-07
-6.47455e-08
-3.90528e-07
-6.47835e-08
-3.25997e-07
-6.45211e-08
-2.62261e-07
-6.37263e-08
-1.98747e-07
-6.35053e-08
-1.36481e-07
-6.22561e-08
-7.37788e-08
-6.26936e-08
-1.1891e-08
-6.18791e-08
5.02556e-08
-6.21381e-08
1.11343e-07
-6.1079e-08
1.71183e-07
-5.98322e-08
2.30099e-07
-5.89093e-08
2.86602e-07
-5.64955e-08
3.44063e-07
-5.74537e-08
3.99735e-07
-5.56659e-08
4.53575e-07
-5.38347e-08
5.06511e-07
-5.29302e-08
5.54279e-07
-4.77626e-08
5.9731e-07
-4.30254e-08
6.47436e-07
-5.01219e-08
6.94574e-07
-4.71339e-08
7.40111e-07
-4.55331e-08
7.90997e-07
-5.08824e-08
8.09446e-07
-1.84447e-08
8.16182e-07
-6.73327e-09
8.63511e-07
-4.73263e-08
8.87504e-07
-2.39897e-08
9.53921e-07
-6.64143e-08
1.05138e-06
-9.74523e-08
1.27466e-06
-2.23282e-07
1.55971e-06
-2.85046e-07
1.7525e-06
-1.92794e-07
1.90415e-06
-1.51643e-07
2.00857e-06
-1.04418e-07
2.08881e-06
-8.02406e-08
2.15186e-06
-6.30456e-08
2.21364e-06
-6.17815e-08
2.27044e-06
-5.68001e-08
2.32394e-06
-5.34996e-08
2.36714e-06
-4.31934e-08
2.41557e-06
-4.84304e-08
2.41608e-06
-5.05514e-10
2.39708e-06
1.89938e-08
2.42767e-06
-3.05883e-08
2.43392e-06
-6.24922e-09
2.49598e-06
-6.20607e-08
2.60331e-06
-1.07328e-07
2.8824e-06
-2.79085e-07
3.24349e-06
-3.61094e-07
3.48859e-06
-2.45099e-07
3.69074e-06
-2.02145e-07
3.817e-06
-1.2626e-07
3.92426e-06
-1.07255e-07
4.00459e-06
-8.03347e-08
4.07118e-06
-6.6592e-08
4.11741e-06
-4.62272e-08
4.14004e-06
-2.26318e-08
4.16279e-06
-2.27459e-08
4.18348e-06
-2.06839e-08
4.19308e-06
-9.59895e-09
4.22974e-06
-3.66672e-08
4.2234e-06
6.34554e-09
4.10682e-06
1.16581e-07
4.03075e-06
7.60623e-08
3.96481e-06
6.59484e-08
3.92701e-06
3.78001e-08
4.14817e-06
-2.21166e-07
4.56582e-06
-4.1765e-07
5.54496e-06
-9.79137e-07
6.7565e-06
-1.21154e-06
7.74808e-06
-9.91579e-07
8.48212e-06
-7.34036e-07
9.01255e-06
-5.30432e-07
9.40533e-06
-3.9278e-07
9.70889e-06
-3.03562e-07
9.95333e-06
-2.44441e-07
1.01516e-05
-1.98258e-07
1.03158e-05
-1.6425e-07
1.04553e-05
-1.3951e-07
1.05786e-05
-1.2325e-07
1.06852e-05
-1.06646e-07
1.07776e-05
-9.2403e-08
1.08618e-05
-8.41399e-08
1.09362e-05
-7.43714e-08
1.10018e-05
-6.56809e-08
1.10636e-05
-6.1745e-08
1.1118e-05
-5.43673e-08
1.11661e-05
-4.8114e-08
1.121e-05
-4.39444e-08
1.12531e-05
-4.30817e-08
1.12908e-05
-3.77441e-08
1.13229e-05
-3.20853e-08
1.13517e-05
-2.88233e-08
1.13785e-05
-2.67301e-08
1.14033e-05
-2.47846e-08
1.14258e-05
-2.25229e-08
1.1446e-05
-2.01833e-08
1.14642e-05
-1.82807e-08
1.14801e-05
-1.58335e-08
1.1494e-05
-1.39263e-08
1.15041e-05
-1.00719e-08
1.1515e-05
-1.0956e-08
1.15274e-05
-1.23865e-08
1.15394e-05
-1.20233e-08
1.15503e-05
-1.08245e-08
1.15595e-05
-9.21567e-09
1.1567e-05
-7.49762e-09
1.15729e-05
-5.97993e-09
1.15779e-05
-5.00404e-09
1.15821e-05
-4.1093e-09
1.1585e-05
-2.98315e-09
1.15868e-05
-1.81015e-09
1.15875e-05
-6.30549e-10
1.15895e-05
-2.03261e-09
1.15886e-05
9.10601e-10
1.15844e-05
4.23729e-09
1.15789e-05
5.40438e-09
1.15733e-05
5.66224e-09
1.15674e-05
5.87388e-09
1.15616e-05
5.79455e-09
1.15558e-05
5.84146e-09
1.15497e-05
6.09177e-09
1.15431e-05
6.56652e-09
1.15358e-05
7.3252e-09
1.15276e-05
8.20332e-09
1.15186e-05
8.93337e-09
1.15094e-05
9.27004e-09
1.15002e-05
9.21146e-09
1.14909e-05
9.28094e-09
1.1481e-05
9.84926e-09
1.14701e-05
1.0926e-08
1.1458e-05
1.20985e-08
1.14456e-05
1.24214e-08
1.14336e-05
1.1964e-08
1.14219e-05
1.1683e-08
1.14094e-05
1.24598e-08
1.13956e-05
1.38474e-08
1.13816e-05
1.40235e-08
1.13681e-05
1.34647e-08
1.1355e-05
1.31054e-08
1.13392e-05
1.5759e-08
1.13264e-05
1.28326e-08
1.13162e-05
1.01597e-08
1.13089e-05
7.31879e-09
1.12979e-05
1.09608e-08
1.12845e-05
1.34157e-08
1.12702e-05
1.42896e-08
1.12558e-05
1.44555e-08
1.12416e-05
1.42255e-08
1.41291e-08
-7.12897e-05
9.86636e-06
-7.03848e-05
-1.21387e-06
-6.84173e-05
-3.53985e-06
-6.61045e-05
-6.61316e-06
-6.35664e-05
-7.59919e-06
-6.13767e-05
-7.78261e-06
-5.94095e-05
-7.17756e-06
-5.76866e-05
-6.16255e-06
-5.64019e-05
-5.20425e-06
-5.55613e-05
-4.74893e-06
-5.52974e-05
-4.51759e-06
-5.54053e-05
-4.25232e-06
-5.57982e-05
-3.60242e-06
-5.61448e-05
-2.43173e-06
-5.69369e-05
-3.9664e-07
-5.88608e-05
2.59468e-06
-6.19981e-05
6.02628e-06
-6.55328e-05
8.23911e-06
-6.81696e-05
8.67764e-06
-6.90407e-05
8.84363e-06
-6.83654e-05
8.49344e-06
-6.82152e-05
6.43285e-06
-6.95871e-05
4.47677e-06
-7.13226e-05
3.81125e-06
-7.28184e-05
3.46043e-06
-7.40599e-05
2.59298e-06
-7.51664e-05
1.79138e-06
-7.6077e-05
1.45751e-06
-7.68158e-05
1.39619e-06
-7.74662e-05
1.48046e-06
-7.81551e-05
1.7446e-06
-7.90971e-05
2.01709e-06
-8.01036e-05
1.93023e-06
-8.10574e-05
1.6951e-06
-8.17947e-05
1.51162e-06
-8.2244e-05
1.34247e-06
-8.24413e-05
9.21801e-07
-8.24913e-05
1.85467e-07
-8.25599e-05
-3.3495e-07
-8.26338e-05
-4.1607e-07
-8.25865e-05
-2.00413e-07
-8.25698e-05
4.57354e-07
-8.27208e-05
8.66412e-07
-8.29281e-05
8.73404e-07
-8.3007e-05
3.56372e-07
-8.28317e-05
-6.08528e-07
-8.26234e-05
-9.1854e-07
-8.22891e-05
-8.84401e-07
-8.19688e-05
-4.27184e-07
-8.19028e-05
7.79084e-08
-8.19204e-05
1.97798e-07
-8.19621e-05
8.25488e-08
-8.19342e-05
-3.62601e-07
-8.16462e-05
-8.79123e-07
-8.11111e-05
-1.17347e-06
-8.0452e-05
-1.3435e-06
-7.97187e-05
-1.63133e-06
-7.89244e-05
-1.9082e-06
-7.81686e-05
-1.94267e-06
-7.74937e-05
-1.665e-06
-7.68664e-05
-1.11186e-06
-7.61828e-05
-8.52531e-07
-7.52699e-05
-1.16369e-06
-7.41764e-05
-1.74253e-06
-7.31728e-05
-2.00141e-06
-7.24817e-05
-1.59301e-06
-7.19249e-05
-1.1017e-06
-7.1308e-05
-1.16858e-06
-7.04664e-05
-1.86712e-06
-6.94105e-05
-2.74534e-06
-6.79651e-05
-3.6665e-06
-6.61796e-05
-4.52696e-06
-6.42975e-05
-5.0362e-06
-6.25964e-05
-5.3933e-06
-6.11344e-05
-5.81007e-06
-5.97906e-05
-6.73343e-06
-5.80148e-05
-8.47574e-06
-5.65161e-05
-1.01999e-05
-5.28424e-05
-1.07892e-05
-4.63725e-05
-9.78212e-06
-3.77224e-05
-1.06589e-05
-2.9149e-05
-8.112e-06
-2.42307e-05
-3.82165e-06
-2.11891e-05
-1.73443e-06
-2.0397e-05
1.12722e-06
-2.08096e-05
1.9936e-06
-2.19411e-05
2.11436e-06
-2.41776e-05
2.93413e-06
-2.64936e-05
2.8461e-06
-2.76333e-05
1.38923e-06
-2.8165e-05
4.94891e-07
-2.83672e-05
1.01324e-07
-2.83103e-05
-2.8203e-07
-2.81456e-05
-4.90201e-07
-2.79703e-05
-6.13317e-07
-2.76874e-05
-8.26814e-07
-2.75332e-05
-1.16407e-06
-2.76243e-05
-1.32359e-06
-2.81792e-05
-1.50595e-06
-2.80773e-05
-1.47904e-06
-2.68342e-05
-1.53422e-06
-2.46835e-05
-2.21297e-06
-2.29842e-05
-1.40887e-06
-2.22768e-05
-5.17673e-07
-2.16203e-05
-1.08528e-07
-2.13547e-05
1.31218e-07
-2.12602e-05
-6.47799e-09
-2.14515e-05
2.35096e-07
-2.19521e-05
4.71482e-07
-2.23444e-05
3.93507e-07
-2.23118e-05
-9.1286e-08
-2.22425e-05
-1.09746e-07
-2.21389e-05
-2.64765e-07
-2.20415e-05
-4.29283e-07
-2.20629e-05
-7.00672e-07
-2.20899e-05
-1.01006e-06
-2.22249e-05
-1.43648e-06
-2.18269e-05
-1.50427e-06
-2.07982e-05
-1.25958e-06
-1.92514e-05
-1.51037e-06
-1.80466e-05
-9.71295e-07
-1.76373e-05
-3.03119e-07
-1.7396e-05
1.05001e-07
-1.74358e-05
3.04014e-07
-1.75472e-05
1.98519e-07
-1.7895e-05
4.73849e-07
-1.8145e-05
3.56132e-07
-1.81858e-05
1.27329e-07
-1.82342e-05
1.61527e-07
-1.82852e-05
1.39688e-07
-1.83437e-05
1.18449e-07
-1.84322e-05
1.45525e-07
-1.84918e-05
9.38898e-08
-1.85154e-05
5.06824e-08
-1.85252e-05
3.2991e-08
-1.85251e-05
1.87308e-08
-1.85286e-05
1.42963e-08
-1.85264e-05
-4.05969e-09
-1.85283e-05
-2.96622e-09
-1.85187e-05
-2.41377e-08
-1.84964e-05
-4.53842e-08
-1.84644e-05
-6.60352e-08
-1.84218e-05
-8.65858e-08
-1.83712e-05
-1.00191e-07
-1.83132e-05
-1.13002e-07
-1.82448e-05
-1.33933e-07
-1.81629e-05
-1.60811e-07
-1.8068e-05
-1.89733e-07
-1.79644e-05
-2.11178e-07
-1.78552e-05
-2.23884e-07
-1.77361e-05
-2.37468e-07
-1.76032e-05
-2.58254e-07
-1.74556e-05
-2.89165e-07
-1.72944e-05
-3.21925e-07
-1.71248e-05
-3.4233e-07
-1.69494e-05
-3.55557e-07
-1.67636e-05
-3.73803e-07
-1.65619e-05
-3.9956e-07
-1.63435e-05
-4.29949e-07
-1.61143e-05
-4.53153e-07
-1.58786e-05
-4.70458e-07
-1.56334e-05
-4.92851e-07
-1.53746e-05
-5.19597e-07
-1.51017e-05
-5.46709e-07
-1.48201e-05
-5.62904e-07
-1.45285e-05
-5.79898e-07
-1.42208e-05
-6.13096e-07
-1.38973e-05
-6.47263e-07
-1.35652e-05
-6.65424e-07
-1.32264e-05
-6.75266e-07
-1.28742e-05
-7.00031e-07
-1.25048e-05
-7.40016e-07
-1.21195e-05
-7.73352e-07
-1.17256e-05
-7.90051e-07
-1.13229e-05
-8.02028e-07
-1.09065e-05
-8.26097e-07
-1.04764e-05
-8.62895e-07
-1.0032e-05
-8.95362e-07
-9.5754e-06
-9.1621e-07
-9.1059e-06
-9.36172e-07
-8.62086e-06
-9.65729e-07
-8.12714e-06
-9.91507e-07
-7.62968e-06
-9.98826e-07
-7.12425e-06
-1.00855e-06
-6.61025e-06
-1.02849e-06
-6.08536e-06
-1.05668e-06
-5.54791e-06
-1.08452e-06
-5.00333e-06
-1.0935e-06
-4.45539e-06
-1.09294e-06
-3.91092e-06
-1.08718e-06
-3.37455e-06
-1.07924e-06
-2.84084e-06
-1.07931e-06
-2.30708e-06
-1.0802e-06
-1.77247e-06
-1.07645e-06
-1.24087e-06
-1.05855e-06
-7.19651e-07
-1.03469e-06
-2.14046e-07
-1.00747e-06
2.78186e-07
-9.85015e-07
7.63425e-07
-9.73362e-07
1.24356e-06
-9.6221e-07
1.71274e-06
-9.39009e-07
2.16652e-06
-9.04849e-07
2.6088e-06
-8.77736e-07
3.04288e-06
-8.60267e-07
3.46923e-06
-8.47762e-07
3.88567e-06
-8.3345e-07
4.29088e-06
-8.12643e-07
4.68565e-06
-7.89277e-07
5.0722e-06
-7.68729e-07
5.45168e-06
-7.54428e-07
5.82287e-06
-7.4184e-07
6.18283e-06
-7.2132e-07
6.53079e-06
-6.9487e-07
6.87114e-06
-6.76233e-07
7.20558e-06
-6.65755e-07
7.53285e-06
-6.54655e-07
7.85166e-06
-6.39426e-07
8.16127e-06
-6.19054e-07
8.4599e-06
-5.93365e-07
8.74831e-06
-5.72664e-07
9.02841e-06
-5.58513e-07
9.30241e-06
-5.48567e-07
9.5691e-06
-5.3513e-07
9.827e-06
-5.1684e-07
1.00753e-05
-4.94376e-07
1.03136e-05
-4.73024e-07
1.05424e-05
-4.55644e-07
1.07629e-05
-4.40282e-07
1.09758e-05
-4.26805e-07
1.11808e-05
-4.11624e-07
1.13768e-05
-3.9211e-07
1.15628e-05
-3.69627e-07
1.17392e-05
-3.51024e-07
1.19073e-05
-3.35655e-07
1.20682e-05
-3.20723e-07
1.22212e-05
-3.0549e-07
1.23655e-05
-2.88559e-07
1.25e-05
-2.68601e-07
1.2624e-05
-2.48423e-07
1.27387e-05
-2.30554e-07
1.28452e-05
-2.13449e-07
1.29442e-05
-1.96405e-07
1.30355e-05
-1.80257e-07
1.31181e-05
-1.64023e-07
1.31915e-05
-1.47859e-07
1.32562e-05
-1.31257e-07
1.33117e-05
-1.12267e-07
1.33582e-05
-9.08034e-08
1.3397e-05
-7.57338e-08
1.34285e-05
-6.33181e-08
1.34519e-05
-4.78387e-08
1.3466e-05
-2.96679e-08
1.3471e-05
-1.08542e-08
1.34685e-05
6.04484e-09
1.34591e-05
2.03198e-08
1.34421e-05
3.52678e-08
1.34166e-05
5.09706e-08
1.33823e-05
6.7117e-08
1.33388e-05
8.48927e-08
1.32885e-05
1.00023e-07
1.32326e-05
1.13145e-07
1.31698e-05
1.26493e-07
1.30997e-05
1.39491e-07
1.3022e-05
1.54017e-07
1.29359e-05
1.71014e-07
1.2842e-05
1.88089e-07
1.27416e-05
2.02449e-07
1.26359e-05
2.11632e-07
1.25247e-05
2.21228e-07
1.24072e-05
2.33555e-07
1.22831e-05
2.46485e-07
1.21524e-05
2.60305e-07
1.20159e-05
2.74276e-07
1.18739e-05
2.85361e-07
1.17263e-05
2.94846e-07
1.15731e-05
3.05024e-07
1.14153e-05
3.14618e-07
1.12531e-05
3.23604e-07
1.10869e-05
3.31867e-07
1.09165e-05
3.39733e-07
1.07407e-05
3.50645e-07
1.05596e-05
3.62922e-07
1.03751e-05
3.69866e-07
1.01883e-05
3.73371e-07
9.99831e-06
3.78976e-07
9.80441e-06
3.86239e-07
9.60717e-06
3.92712e-07
9.40746e-06
3.98759e-07
9.2051e-06
4.05737e-07
9.00027e-06
4.10967e-07
8.79353e-06
4.13775e-07
8.58459e-06
4.16746e-07
8.37343e-06
4.20394e-07
8.16119e-06
4.22965e-07
7.94805e-06
4.26713e-07
7.73407e-06
4.30122e-07
7.51914e-06
4.30824e-07
7.3021e-06
4.32873e-07
7.08429e-06
4.33636e-07
6.86783e-06
4.31503e-07
6.65283e-06
4.31258e-07
6.43832e-06
4.31658e-07
6.22295e-06
4.30669e-07
6.00742e-06
4.29047e-07
5.79508e-06
4.24151e-07
5.58571e-06
4.20598e-07
5.37763e-06
4.17509e-07
5.17053e-06
4.136e-07
4.96622e-06
4.07164e-07
4.76556e-06
4.00047e-07
4.56821e-06
3.95197e-07
4.37376e-06
3.90626e-07
4.1812e-06
3.8518e-07
3.99226e-06
3.76223e-07
3.80815e-06
3.66634e-07
3.62821e-06
3.59777e-07
3.45176e-06
3.53595e-07
3.27778e-06
3.4692e-07
3.10609e-06
3.40733e-07
2.93786e-06
3.33609e-07
2.77339e-06
3.27538e-07
2.61197e-06
3.23105e-07
2.45266e-06
3.18144e-07
2.29467e-06
3.13723e-07
2.13745e-06
3.11236e-07
1.98151e-06
3.10081e-07
1.8271e-06
3.08938e-07
1.67379e-06
3.06479e-07
1.5211e-06
3.04245e-07
1.36837e-06
3.03672e-07
1.21592e-06
3.04249e-07
1.06414e-06
3.0529e-07
9.13196e-07
3.04084e-07
7.6381e-07
3.0021e-07
6.16343e-07
2.9535e-07
4.70939e-07
2.90656e-07
3.28269e-07
2.85631e-07
1.88854e-07
2.80036e-07
5.26288e-08
2.74315e-07
-8.04703e-08
2.67332e-07
-2.10127e-07
2.59249e-07
-3.35636e-07
2.50596e-07
-4.56911e-07
2.42036e-07
-5.74238e-07
2.34583e-07
-6.86787e-07
2.26112e-07
-7.94424e-07
2.16182e-07
-8.97551e-07
2.06238e-07
-9.9609e-07
1.96486e-07
-1.08996e-06
1.87415e-07
-1.17896e-06
1.78523e-07
-1.26302e-06
1.69053e-07
-1.34222e-06
1.58667e-07
-1.41653e-06
1.48281e-07
-1.48585e-06
1.38891e-07
-1.55025e-06
1.29488e-07
-1.60997e-06
1.19632e-07
-1.66502e-06
1.09791e-07
-1.71501e-06
9.98081e-08
-1.75985e-06
8.98172e-08
-1.79974e-06
7.99353e-08
-1.83487e-06
7.02982e-08
-1.86532e-06
6.08264e-08
-1.89095e-06
5.12724e-08
-1.91186e-06
4.2132e-08
-1.92813e-06
3.31537e-08
-1.93988e-06
2.42436e-08
-1.9473e-06
1.52589e-08
-1.95038e-06
6.37891e-09
-1.94926e-06
-2.165e-09
-1.94402e-06
-1.02057e-08
-1.93474e-06
-1.8039e-08
-1.92154e-06
-2.59295e-08
-1.90438e-06
-3.40278e-08
-1.88336e-06
-4.18246e-08
-1.85874e-06
-4.89088e-08
-1.83078e-06
-5.55387e-08
-1.79973e-06
-6.19381e-08
-1.76549e-06
-6.82622e-08
-1.72804e-06
-7.42318e-08
-1.68766e-06
-7.97039e-08
-1.64465e-06
-8.51762e-08
-1.5992e-06
-9.04964e-08
-1.55119e-06
-9.5821e-08
-1.50095e-06
-1.00271e-07
-1.44866e-06
-1.04361e-07
-1.39451e-06
-1.08043e-07
-1.3385e-06
-1.11416e-07
-1.28077e-06
-1.14864e-07
-1.22159e-06
-1.18065e-07
-1.16126e-06
-1.20628e-07
-1.09962e-06
-1.22675e-07
-1.03684e-06
-1.24728e-07
-9.73263e-07
-1.266e-07
-9.09306e-07
-1.27911e-07
-8.44865e-07
-1.28832e-07
-7.79922e-07
-1.29865e-07
-7.14563e-07
-1.30504e-07
-6.49015e-07
-1.30491e-07
-5.83407e-07
-1.3037e-07
-5.18498e-07
-1.29535e-07
-4.53569e-07
-1.29658e-07
-3.8909e-07
-1.29246e-07
-3.24747e-07
-1.28847e-07
-2.61002e-07
-1.27456e-07
-1.9709e-07
-1.27401e-07
-1.34588e-07
-1.24743e-07
-7.21549e-08
-1.25111e-07
-1.14837e-08
-1.22536e-07
4.87992e-08
-1.22407e-07
1.10163e-07
-1.22429e-07
1.70555e-07
-1.20211e-07
2.32357e-07
-1.20699e-07
2.90831e-07
-1.14958e-07
3.49103e-07
-1.15714e-07
4.0063e-07
-1.07183e-07
4.48737e-07
-1.01932e-07
5.03931e-07
-1.08115e-07
5.60304e-07
-1.04127e-07
6.17528e-07
-1.00241e-07
6.73656e-07
-1.06242e-07
6.9366e-07
-6.71312e-08
7.00303e-07
-5.21694e-08
7.4908e-07
-9.96529e-08
8.08681e-07
-7.80396e-08
9.20335e-07
-1.18382e-07
1.04357e-06
-1.7056e-07
1.27995e-06
-2.60364e-07
1.55761e-06
-3.44069e-07
1.74925e-06
-2.89085e-07
1.85652e-06
-3.3055e-07
1.88938e-06
-3.17898e-07
1.94465e-06
-2.48064e-07
1.99329e-06
-2.0028e-07
2.06206e-06
-1.73186e-07
2.12621e-06
-1.44392e-07
2.19941e-06
-1.36242e-07
2.26501e-06
-1.27381e-07
2.325e-06
-1.16781e-07
2.33681e-06
-6.53068e-08
2.32332e-06
-2.97098e-08
2.36562e-06
-9.07221e-08
2.42302e-06
-5.79064e-08
2.55617e-06
-1.14156e-07
2.70739e-06
-1.81807e-07
3.0119e-06
-3.10755e-07
3.36949e-06
-4.19644e-07
3.61982e-06
-3.57656e-07
3.753e-06
-4.12266e-07
3.78395e-06
-3.92044e-07
3.84586e-06
-3.07005e-07
3.90135e-06
-2.57635e-07
3.95974e-06
-1.84647e-07
3.99403e-06
-1.4155e-07
4.03329e-06
-1.19588e-07
4.07635e-06
-1.09657e-07
4.13001e-06
-9.98858e-08
4.1851e-06
-7.77217e-08
4.26229e-06
-9.99285e-08
4.28381e-06
-4.22088e-08
4.17807e-06
9.61408e-08
4.09006e-06
5.1348e-08
4.05634e-06
4.00673e-08
4.14699e-06
2.59335e-08
4.50607e-06
-2.83022e-07
5.12815e-06
-5.5613e-07
6.26227e-06
-1.09632e-06
7.39692e-06
-1.35582e-06
8.28015e-06
-1.30087e-06
8.77288e-06
-1.47187e-06
8.94183e-06
-1.3805e-06
9.1476e-06
-1.19734e-06
9.35552e-06
-9.41954e-07
9.56585e-06
-7.40767e-07
9.76574e-06
-5.92663e-07
9.94905e-06
-4.86871e-07
1.01157e-05
-4.11127e-07
1.02659e-05
-3.48436e-07
1.03997e-05
-2.98064e-07
1.0521e-05
-2.60821e-07
1.06302e-05
-2.32448e-07
1.07274e-05
-2.03797e-07
1.08145e-05
-1.79505e-07
1.08935e-05
-1.63149e-07
1.09649e-05
-1.45793e-07
1.10296e-05
-1.30321e-07
1.10888e-05
-1.21003e-07
1.11427e-05
-1.08273e-07
1.11919e-05
-9.73391e-08
1.1237e-05
-8.89569e-08
1.12784e-05
-8.45517e-08
1.13159e-05
-7.52078e-08
1.13496e-05
-6.58045e-08
1.13802e-05
-5.9398e-08
1.14081e-05
-5.46065e-08
1.1433e-05
-4.97397e-08
1.14556e-05
-4.51124e-08
1.14761e-05
-4.06731e-08
1.14946e-05
-3.67933e-08
1.15106e-05
-3.18678e-08
1.15249e-05
-2.81561e-08
1.15376e-05
-2.28034e-08
1.15492e-05
-2.25488e-08
1.15597e-05
-2.28802e-08
1.15691e-05
-2.14203e-08
1.15773e-05
-1.90713e-08
1.15845e-05
-1.63881e-08
1.15908e-05
-1.3845e-08
1.1596e-05
-1.11533e-08
1.16001e-05
-9.13497e-09
1.16033e-05
-7.29004e-09
1.16054e-05
-5.10588e-09
1.16062e-05
-2.5829e-09
1.16061e-05
-5.33742e-10
1.16051e-05
-1.03381e-09
1.16027e-05
3.25161e-09
1.15996e-05
7.36832e-09
1.15958e-05
9.21963e-09
1.15913e-05
1.0165e-08
1.15862e-05
1.09646e-08
1.15804e-05
1.15899e-08
1.15741e-05
1.21314e-08
1.15674e-05
1.27432e-08
1.15604e-05
1.36292e-08
1.15528e-05
1.4955e-08
1.15444e-05
1.65271e-08
1.15355e-05
1.78596e-08
1.15262e-05
1.85623e-08
1.15166e-05
1.88219e-08
1.15066e-05
1.92474e-08
1.14958e-05
2.0667e-08
1.1484e-05
2.27324e-08
1.1472e-05
2.41078e-08
1.14603e-05
2.41135e-08
1.14485e-05
2.37146e-08
1.1436e-05
2.42499e-08
1.14226e-05
2.58072e-08
1.14093e-05
2.71854e-08
1.13967e-05
2.65399e-08
1.13839e-05
2.63158e-08
1.13702e-05
2.68085e-08
1.13559e-05
2.99915e-08
1.13425e-05
2.62692e-08
1.13298e-05
2.29112e-08
1.13165e-05
2.05362e-08
1.1302e-05
2.5452e-08
1.12874e-05
2.80081e-08
1.1273e-05
2.86954e-08
1.12589e-05
2.86314e-08
1.12443e-05
2.8821e-08
3.09662e-08
-6.70262e-05
7.00485e-06
-6.63383e-05
-1.90126e-06
-6.52166e-05
-4.66116e-06
-6.4193e-05
-7.63654e-06
-6.35211e-05
-8.27087e-06
-6.29995e-05
-8.3041e-06
-6.25087e-05
-7.6682e-06
-6.23154e-05
-6.3557e-06
-6.28494e-05
-4.67027e-06
-6.44681e-05
-3.13015e-06
-6.70634e-05
-1.92225e-06
-7.01336e-05
-1.18204e-06
-7.30095e-05
-7.26543e-07
-7.51254e-05
-3.15732e-07
-7.6423e-05
9.00958e-07
-7.69442e-05
3.11588e-06
-7.64786e-05
5.56072e-06
-7.54562e-05
7.21672e-06
-7.47594e-05
7.98082e-06
-7.4079e-05
8.16329e-06
-7.31804e-05
7.59483e-06
-7.28949e-05
6.14731e-06
-7.35454e-05
5.12724e-06
-7.44126e-05
4.67846e-06
-7.51883e-05
4.23614e-06
-7.61654e-05
3.57003e-06
-7.72465e-05
2.8725e-06
-7.802e-05
2.23095e-06
-7.85513e-05
1.92744e-06
-7.9011e-05
1.94018e-06
-7.94885e-05
2.22205e-06
-8.01297e-05
2.65826e-06
-8.0929e-05
2.72949e-06
-8.17624e-05
2.52843e-06
-8.22916e-05
2.04076e-06
-8.23375e-05
1.38829e-06
-8.22266e-05
8.10803e-07
-8.23636e-05
3.22375e-07
-8.271e-05
1.14329e-08
-8.30318e-05
-9.44062e-08
-8.32166e-05
-1.56421e-08
-8.30142e-05
2.54875e-07
-8.27401e-05
5.92222e-07
-8.24896e-05
6.22808e-07
-8.23099e-05
1.76706e-07
-8.23455e-05
-5.7301e-07
-8.24441e-05
-8.1998e-07
-8.25061e-05
-8.2243e-07
-8.23113e-05
-6.21972e-07
-8.20335e-05
-1.9991e-07
-8.18587e-05
2.29777e-08
-8.17591e-05
-1.70434e-08
-8.17524e-05
-3.6932e-07
-8.16701e-05
-9.61378e-07
-8.14311e-05
-1.41246e-06
-8.1042e-05
-1.73254e-06
-8.05871e-05
-2.08624e-06
-8.00818e-05
-2.41347e-06
-7.95591e-05
-2.46533e-06
-7.89809e-05
-2.24312e-06
-7.81766e-05
-1.91611e-06
-7.70672e-05
-1.96192e-06
-7.57041e-05
-2.52679e-06
-7.43557e-05
-3.09086e-06
-7.33248e-05
-3.0323e-06
-7.25849e-05
-2.33289e-06
-7.18208e-05
-1.86576e-06
-7.10309e-05
-1.95838e-06
-7.02868e-05
-2.61123e-06
-6.95258e-05
-3.50632e-06
-6.85547e-05
-4.63755e-06