/*--------------------------------*- C++ -*----------------------------------*\
| =========                 |                                                 |
| \\      /  F ield         | OpenFOAM: The Open Source CFD Toolbox           |
|  \\    /   O peration     | Version:  v2006                                 |
|   \\  /    A nd           | Website:  www.openfoam.com                      |
|    \\/     M anipulation  |                                                 |
\*---------------------------------------------------------------------------*/
FoamFile
{
    version     2.0;
    format      ascii;
    class       volVectorField;
    location    "5.9";
    object      U;
}
// * * * * * * * * * * * * * * * * * * * * * * * * * * * * * * * * * * * * * //

dimensions      [0 1 -1 0 0 0 0];


internalField   nonuniform List<vector> 
33000
(
(-0.2283 0 0.0228839)
(-0.18351 0 -0.000898088)
(-0.196271 0 -0.00426624)
(-0.186318 0 -0.0132957)
(-0.174314 0 -0.0142196)
(-0.160273 0 -0.0170161)
(-0.146353 0 -0.0159913)
(-0.134936 0 -0.0133254)
(-0.124152 0 -0.0115486)
(-0.114754 0 -0.0108919)
(-0.104015 0 -0.0128124)
(-0.0936981 0 -0.0143328)
(-0.0826846 0 -0.0153514)
(-0.074074 0 -0.0126981)
(-0.0689589 0 -0.00964302)
(-0.0686356 0 -0.00820826)
(-0.0725975 0 -0.00723143)
(-0.0820443 0 -0.00365753)
(-0.0954492 0 0.00574769)
(-0.112274 0 0.0209455)
(-0.133825 0 0.0323983)
(-0.158747 0 0.0232714)
(-0.169529 0 0.00799449)
(-0.17316 0 0.00326518)
(-0.179453 0 0.00349413)
(-0.184005 0 0.00283948)
(-0.185849 0 0.00099219)
(-0.187128 0 0.000715412)
(-0.188631 0 0.00117983)
(-0.190265 0 0.00199361)
(-0.192598 0 0.00278072)
(-0.195607 0 0.00236126)
(-0.198128 0 0.00182685)
(-0.20019 0 0.00134911)
(-0.201854 0 0.00168302)
(-0.204069 0 0.00223485)
(-0.206258 0 0.00200058)
(-0.207579 0 0.000565782)
(-0.207157 0 -0.00115109)
(-0.205609 0 -0.00157723)
(-0.204344 0 -0.000162177)
(-0.204943 0 0.00144665)
(-0.206662 0 0.00207364)
(-0.208652 0 0.00177957)
(-0.210165 0 0.000684872)
(-0.210028 0 -0.000963911)
(-0.208158 0 -0.00186276)
(-0.206009 0 -0.000954949)
(-0.205381 0 0.000160433)
(-0.205559 0 0.000529656)
(-0.206175 0 0.000582186)
(-0.206765 0 9.05981e-05)
(-0.206359 0 -0.000969099)
(-0.204925 0 -0.00134751)
(-0.20321 0 -0.00115552)
(-0.201723 0 -0.0010996)
(-0.199811 0 -0.00169715)
(-0.197244 0 -0.00238653)
(-0.19427 0 -0.00270924)
(-0.191241 0 -0.00215928)
(-0.189371 0 -0.000624287)
(-0.189008 0 0.000219321)
(-0.18867 0 0.000189691)
(-0.187626 0 -0.000853629)
(-0.185187 0 -0.00195515)
(-0.182463 0 -0.00194655)
(-0.180913 0 -0.000965552)
(-0.179957 0 -0.000980555)
(-0.178108 0 -0.00216602)
(-0.174538 0 -0.00387525)
(-0.169546 0 -0.005002)
(-0.163208 0 -0.00622282)
(-0.155903 0 -0.00743129)
(-0.14743 0 -0.0093875)
(-0.137519 0 -0.0118642)
(-0.125598 0 -0.0156469)
(-0.106494 0 -0.019997)
(-0.0939511 0 -0.0274209)
(-0.0665616 0 -0.0121277)
(-0.0574684 0 0.00455036)
(-0.0498159 0 0.00948734)
(-0.0478871 0 0.0118382)
(-0.0518431 0 0.00308237)
(-0.0534147 0 -0.000318617)
(-0.0584398 0 0.00104247)
(-0.0629677 0 0.00335883)
(-0.0663063 0 0.00157782)
(-0.0679498 0 0.000171631)
(-0.0697446 0 0.000387271)
(-0.0706542 0 1.37062e-06)
(-0.0709284 0 6.58271e-05)
(-0.0705187 0 -0.000134804)
(-0.0704102 0 -3.76042e-05)
(-0.0693647 0 -0.00045206)
(-0.0688491 0 -0.00053866)
(-0.0670615 0 -0.00100135)
(-0.0662983 0 -0.00250904)
(-0.0617588 0 -0.00476578)
(-0.0595975 0 -0.00833296)
(-0.0512926 0 -0.00510302)
(-0.0523831 0 0.00148264)
(-0.0502601 0 0.00514032)
(-0.051903 0 0.00472716)
(-0.0517049 0 0.000238065)
(-0.0529159 0 -0.00095256)
(-0.0544111 0 -0.00168651)
(-0.0548459 0 -0.000699603)
(-0.0549415 0 -0.000266002)
(-0.0549854 0 0.00078607)
(-0.054867 0 0.000757803)
(-0.0549349 0 0.000266809)
(-0.054605 0 -0.00010722)
(-0.0547342 0 -0.000707892)
(-0.0537489 0 -0.00106691)
(-0.0531697 0 -0.00234646)
(-0.0499666 0 -0.00305998)
(-0.0482739 0 -0.00537956)
(-0.0419751 0 -0.00237006)
(-0.042479 0 0.00126727)
(-0.0411813 0 0.00308908)
(-0.042486 0 0.00236542)
(-0.0423752 0 -5.00929e-05)
(-0.0430568 0 -0.000324063)
(-0.0440725 0 -0.000311655)
(-0.0443556 0 0.000302448)
(-0.0445544 0 0.000596097)
(-0.0449533 0 0.000564676)
(-0.0450988 0 0.000201353)
(-0.0453849 0 0.000176713)
(-0.0456624 0 9.73467e-05)
(-0.0458226 0 0.000188813)
(-0.0459719 0 0.000186949)
(-0.0460972 0 0.000161108)
(-0.0461511 0 7.09653e-05)
(-0.0462276 0 5.82705e-05)
(-0.04627 0 -6.26857e-06)
(-0.0463196 0 -5.62209e-06)
(-0.0463224 0 -3.31387e-05)
(-0.0463132 0 -2.25662e-05)
(-0.0462945 0 -4.25462e-05)
(-0.0462429 0 -5.35533e-05)
(-0.0461765 0 -7.74892e-05)
(-0.0460739 0 -9.40543e-05)
(-0.0459555 0 -0.000101006)
(-0.0458263 0 -0.000106098)
(-0.0456793 0 -0.000127851)
(-0.0454991 0 -0.000154188)
(-0.0452832 0 -0.00018934)
(-0.0450254 0 -0.000214375)
(-0.0447449 0 -0.000231971)
(-0.0444522 0 -0.000233236)
(-0.0441528 0 -0.000242071)
(-0.0438242 0 -0.000274486)
(-0.0434445 0 -0.000318232)
(-0.0430214 0 -0.000341802)
(-0.0425804 0 -0.000359712)
(-0.0421204 0 -0.000373459)
(-0.0416402 0 -0.000387252)
(-0.0411303 0 -0.000409539)
(-0.0405828 0 -0.000436888)
(-0.0400105 0 -0.000463255)
(-0.0394082 0 -0.000491241)
(-0.0387725 0 -0.000515551)
(-0.0381036 0 -0.000539432)
(-0.0374039 0 -0.000553569)
(-0.0366972 0 -0.000566176)
(-0.0359613 0 -0.00059973)
(-0.0351703 0 -0.000637257)
(-0.0343425 0 -0.000656762)
(-0.0335041 0 -0.000661088)
(-0.0326599 0 -0.000681526)
(-0.0317636 0 -0.000728747)
(-0.0308076 0 -0.000764919)
(-0.0298234 0 -0.000781575)
(-0.0288269 0 -0.000783361)
(-0.0278269 0 -0.000799239)
(-0.0267774 0 -0.00085237)
(-0.0256631 0 -0.000890031)
(-0.0245228 0 -0.000905702)
(-0.0233652 0 -0.000916387)
(-0.0221894 0 -0.000939125)
(-0.0209614 0 -0.000978742)
(-0.0197013 0 -0.000986081)
(-0.0184543 0 -0.000985617)
(-0.0171856 0 -0.00101227)
(-0.0158819 0 -0.00105184)
(-0.0145266 0 -0.00108205)
(-0.013147 0 -0.00107873)
(-0.0117822 0 -0.00106464)
(-0.0104217 0 -0.00106227)
(-0.00906918 0 -0.00107293)
(-0.00770685 0 -0.00108322)
(-0.00634197 0 -0.00108361)
(-0.00497405 0 -0.00106908)
(-0.00363364 0 -0.00102899)
(-0.0023389 0 -0.00100146)
(-0.0010667 0 -0.000984708)
(0.000170952 0 -0.000971345)
(0.00139747 0 -0.00096239)
(0.00261149 0 -0.000948603)
(0.00380769 0 -0.000924341)
(0.00496036 0 -0.000885162)
(0.00606297 0 -0.000849787)
(0.00713775 0 -0.000830681)
(0.00819375 0 -0.000824345)
(0.00924496 0 -0.000820535)
(0.0102785 0 -0.000803198)
(0.0112821 0 -0.000776093)
(0.0122509 0 -0.000747791)
(0.0131931 0 -0.000733461)
(0.0141258 0 -0.000728122)
(0.0150462 0 -0.000711699)
(0.0159325 0 -0.000681345)
(0.0167807 0 -0.000656206)
(0.0176122 0 -0.000648739)
(0.0184375 0 -0.000644145)
(0.0192489 0 -0.000631989)
(0.0200409 0 -0.000607749)
(0.0207955 0 -0.000575367)
(0.0215154 0 -0.00055525)
(0.0222165 0 -0.000546603)
(0.0229081 0 -0.000540671)
(0.0235891 0 -0.000529072)
(0.0242507 0 -0.00050996)
(0.0248837 0 -0.000481738)
(0.0254813 0 -0.000458193)
(0.026058 0 -0.000444297)
(0.0266153 0 -0.000431781)
(0.0271574 0 -0.000421285)
(0.0276848 0 -0.000407781)
(0.0281912 0 -0.000385365)
(0.028665 0 -0.000359102)
(0.0291101 0 -0.000341857)
(0.0295386 0 -0.000328772)
(0.0299478 0 -0.000313916)
(0.0303384 0 -0.00029975)
(0.0307106 0 -0.000282824)
(0.0310595 0 -0.000262661)
(0.0313818 0 -0.000244712)
(0.0316819 0 -0.000229052)
(0.0319614 0 -0.000211185)
(0.0322167 0 -0.000190782)
(0.0324492 0 -0.000172535)
(0.0326615 0 -0.000159625)
(0.0328572 0 -0.000147063)
(0.0330335 0 -0.000132237)
(0.033191 0 -0.000112171)
(0.0333167 0 -8.54577e-05)
(0.0334137 0 -7.15573e-05)
(0.0335016 0 -6.31746e-05)
(0.0335729 0 -4.87483e-05)
(0.0336237 0 -3.14962e-05)
(0.0336513 0 -1.21713e-05)
(0.0336533 0 7.53697e-06)
(0.0336342 0 2.31155e-05)
(0.0335986 0 3.63453e-05)
(0.0335434 0 4.99049e-05)
(0.0334714 0 6.31248e-05)
(0.0333794 0 7.92887e-05)
(0.033265 0 9.78848e-05)
(0.0331309 0 0.000114161)
(0.032979 0 0.000126137)
(0.0328125 0 0.00013574)
(0.0326323 0 0.000148744)
(0.0324312 0 0.00016591)
(0.0322078 0 0.000185596)
(0.0319604 0 0.000202087)
(0.0316984 0 0.000208523)
(0.0314307 0 0.000215291)
(0.0311482 0 0.000226908)
(0.0308503 0 0.000239553)
(0.0305369 0 0.000255588)
(0.0302023 0 0.000273025)
(0.0298482 0 0.000282478)
(0.0294857 0 0.00028815)
(0.0291124 0 0.000297304)
(0.0287266 0 0.000308195)
(0.0283286 0 0.000317674)
(0.0279194 0 0.000325422)
(0.0275006 0 0.000332359)
(0.0270729 0 0.000344132)
(0.0266265 0 0.000358882)
(0.0261641 0 0.000365004)
(0.0256998 0 0.000366205)
(0.0252315 0 0.000370635)
(0.0247552 0 0.000377011)
(0.02427 0 0.000383985)
(0.0237781 0 0.000392875)
(0.0232749 0 0.00040156)
(0.0227615 0 0.000406427)
(0.0222444 0 0.000407116)
(0.0217265 0 0.000407787)
(0.0212054 0 0.000410401)
(0.0206805 0 0.000414073)
(0.0201519 0 0.000421366)
(0.0196126 0 0.00042717)
(0.0190714 0 0.000425303)
(0.018533 0 0.000423321)
(0.0179923 0 0.000422924)
(0.0174538 0 0.000422245)
(0.0169171 0 0.000426914)
(0.0163724 0 0.000429732)
(0.0158316 0 0.0004237)
(0.0152957 0 0.000418085)
(0.0147642 0 0.000416134)
(0.0142364 0 0.000417233)
(0.0137082 0 0.000413365)
(0.0131891 0 0.000405863)
(0.0126757 0 0.00039777)
(0.0121748 0 0.000390823)
(0.0116787 0 0.00038934)
(0.0111856 0 0.000387755)
(0.0106979 0 0.00037934)
(0.0102224 0 0.000367138)
(0.00976141 0 0.000357881)
(0.00930978 0 0.000354089)
(0.00886215 0 0.000349538)
(0.00842411 0 0.000339606)
(0.00799735 0 0.000330537)
(0.0075789 0 0.00032349)
(0.00717037 0 0.000320732)
(0.0067635 0 0.000319649)
(0.00636197 0 0.000312953)
(0.00596926 0 0.000305138)
(0.00558324 0 0.00030128)
(0.00519916 0 0.000302923)
(0.00481247 0 0.000305195)
(0.00442653 0 0.000302116)
(0.00404653 0 0.000297731)
(0.00366871 0 0.000295644)
(0.00329183 0 0.000298187)
(0.00290965 0 0.000303412)
(0.00252425 0 0.000302579)
(0.00214393 0 0.00029717)
(0.00177013 0 0.000290839)
(0.00140449 0 0.00028536)
(0.00104387 0 0.0002813)
(0.000689681 0 0.000277551)
(0.000340763 0 0.000272951)
(-7.74813e-07 0 0.000264651)
(-0.000330405 0 0.000254329)
(-0.000648714 0 0.000245267)
(-0.000955793 0 0.000236782)
(-0.00125248 0 0.00023029)
(-0.00154203 0 0.000224121)
(-0.00182022 0 0.000214073)
(-0.0020847 0 0.000202598)
(-0.0023357 0 0.000192137)
(-0.00257437 0 0.000183644)
(-0.00280336 0 0.000176471)
(-0.00302191 0 0.000168053)
(-0.00322819 0 0.000156696)
(-0.00341917 0 0.000145227)
(-0.00359798 0 0.00013712)
(-0.00376692 0 0.000128689)
(-0.00392333 0 0.000117983)
(-0.00406637 0 0.000107401)
(-0.00419695 0 9.77659e-05)
(-0.00431533 0 8.85396e-05)
(-0.00442175 0 7.8748e-05)
(-0.00451544 0 6.91443e-05)
(-0.00459753 0 5.94245e-05)
(-0.00466721 0 5.02363e-05)
(-0.00472569 0 4.14549e-05)
(-0.00477319 0 3.3289e-05)
(-0.00481004 0 2.45485e-05)
(-0.00483551 0 1.55078e-05)
(-0.00484922 0 5.90649e-06)
(-0.00485186 0 -2.78165e-06)
(-0.00484395 0 -1.0908e-05)
(-0.00482691 0 -1.77076e-05)
(-0.00480008 0 -2.60037e-05)
(-0.00476314 0 -3.40414e-05)
(-0.00471569 0 -4.24178e-05)
(-0.00465905 0 -4.88482e-05)
(-0.0045942 0 -5.57924e-05)
(-0.004521 0 -6.21652e-05)
(-0.00443971 0 -6.86122e-05)
(-0.00435082 0 -7.3544e-05)
(-0.00425575 0 -7.81194e-05)
(-0.00415409 0 -8.41133e-05)
(-0.00404485 0 -8.96662e-05)
(-0.00392875 0 -9.57224e-05)
(-0.00380578 0 -9.89796e-05)
(-0.00367847 0 -0.000103861)
(-0.00354536 0 -0.000105547)
(-0.00340892 0 -0.000109999)
(-0.00326825 0 -0.00011063)
(-0.00312318 0 -0.000116588)
(-0.00297368 0 -0.000115964)
(-0.00282161 0 -0.000119844)
(-0.00266841 0 -0.000117241)
(-0.00251175 0 -0.000123088)
(-0.00235322 0 -0.000120705)
(-0.00219181 0 -0.000125262)
(-0.00203123 0 -0.000121357)
(-0.00186697 0 -0.000125648)
(-0.00170552 0 -0.000119861)
(-0.00154194 0 -0.000122978)
(-0.0013818 0 -0.000118638)
(-0.00121843 0 -0.000121365)
(-0.00105829 0 -0.000118323)
(-0.000894181 0 -0.000118509)
(-0.00073594 0 -0.000116619)
(-0.000575206 0 -0.000113065)
(-0.000418646 0 -0.000114707)
(-0.000263641 0 -0.000106471)
(-0.000105313 0 -0.000116413)
(4.59088e-05 0 -0.000104002)
(0.000205411 0 -0.000123752)
(0.00035124 0 -0.000106174)
(0.000504835 0 -0.000128421)
(0.000645474 0 -0.000105117)
(0.00078781 0 -0.000121657)
(0.000932227 0 -9.69791e-05)
(0.00106677 0 -0.000112646)
(0.00120082 0 -0.000106736)
(0.00133204 0 -0.000129569)
(0.00143906 0 -0.000105573)
(0.00154782 0 -0.000103309)
(0.00168908 0 -4.15683e-05)
(0.00178404 0 -4.38549e-05)
(0.00191639 0 -0.000102175)
(0.00203868 0 -0.000189535)
(0.0020082 0 -0.000185853)
(0.00207337 0 -0.000122233)
(0.00224349 0 0.000256847)
(0.00219448 0 0.000334788)
(0.00257558 0 1.74353e-05)
(0.00268003 0 -0.000512964)
(0.00369315 0 -0.0009323)
(0.00410736 0 -0.00053231)
(0.00465325 0 -0.000427176)
(0.00486914 0 -0.000296429)
(0.00517216 0 -0.000224753)
(0.00527305 0 -0.000226586)
(0.00548558 0 -0.000118827)
(0.0055828 0 -0.000129053)
(0.00576974 0 1.1652e-06)
(0.00584915 0 -2.83575e-05)
(0.00598774 0 -4.88042e-05)
(0.00608862 0 -0.000168056)
(0.00599266 0 -0.000126263)
(0.00599237 0 -6.86059e-05)
(0.00614661 0 0.000421944)
(0.00602151 0 0.000515976)
(0.0064624 0 0.000146083)
(0.00654792 0 -0.000576178)
(0.00786636 0 -0.00112897)
(0.00835363 0 -0.000627261)
(0.00908745 0 -0.000538632)
(0.00936742 0 -0.000268119)
(0.0097165 0 -0.000213179)
(0.00990566 0 -0.000121337)
(0.0101164 0 -0.000129273)
(0.0102401 0 -0.000121388)
(0.0103462 0 -0.000123651)
(0.0103544 0 -0.000104345)
(0.0104597 0 -1.12113e-05)
(0.0104567 0 0.000108209)
(0.0105104 0 6.83105e-05)
(0.0106363 0 -8.23341e-05)
(0.0104815 0 -0.000219979)
(0.0100529 0 -0.000333039)
(0.0101015 0 0.000174954)
(0.00971867 0 0.00124535)
(0.00992564 0 0.00110507)
(0.0108026 0 0.00045012)
(0.0120319 0 -0.00161722)
(0.0157113 0 -0.00368614)
(0.0178216 0 -0.00272774)
(0.0205402 0 -0.00195432)
(0.0219784 0 -0.00136614)
(0.0230489 0 -0.000966532)
(0.023916 0 -0.000712662)
(0.0245955 0 -0.000551082)
(0.0251432 0 -0.000430958)
(0.0255937 0 -0.000347939)
(0.0259704 0 -0.000288344)
(0.0262963 0 -0.000251682)
(0.0265838 0 -0.000215262)
(0.0268326 0 -0.000184324)
(0.0270516 0 -0.000167484)
(0.0272501 0 -0.000147268)
(0.0274254 0 -0.000129042)
(0.0275832 0 -0.000121908)
(0.0277289 0 -0.000106776)
(0.0278578 0 -9.37824e-05)
(0.0279721 0 -8.53336e-05)
(0.0280793 0 -8.51788e-05)
(0.0281814 0 -7.42153e-05)
(0.0282696 0 -6.23449e-05)
(0.0283453 0 -5.58055e-05)
(0.0284141 0 -5.18808e-05)
(0.0284783 0 -4.90327e-05)
(0.0285375 0 -4.47203e-05)
(0.0285909 0 -3.97291e-05)
(0.0286389 0 -3.59644e-05)
(0.0286814 0 -3.12916e-05)
(0.0287191 0 -2.7517e-05)
(0.0287497 0 -1.84783e-05)
(0.028775 0 -2.12666e-05)
(0.0288031 0 -2.56884e-05)
(0.0288341 0 -2.51267e-05)
(0.028863 0 -2.26279e-05)
(0.0288882 0 -1.92897e-05)
(0.0289092 0 -1.46248e-05)
(0.028926 0 -1.14273e-05)
(0.0289396 0 -9.73894e-06)
(0.0289509 0 -8.06002e-06)
(0.0289598 0 -5.84041e-06)
(0.0289661 0 -3.97369e-06)
(0.0289687 0 -1.26961e-06)
(0.028971 0 -5.84234e-06)
(0.0289736 0 1.37094e-06)
(0.028968 0 9.53489e-06)
(0.0289553 0 1.22131e-05)
(0.028941 0 1.24071e-05)
(0.0289266 0 1.27182e-05)
(0.0289119 0 1.2221e-05)
(0.0288973 0 1.19195e-05)
(0.0288824 0 1.23007e-05)
(0.0288666 0 1.328e-05)
(0.0288493 0 1.49179e-05)
(0.02883 0 1.67704e-05)
(0.0288085 0 1.83598e-05)
(0.0287856 0 1.9135e-05)
(0.0287623 0 1.87456e-05)
(0.0287392 0 1.87439e-05)
(0.0287154 0 1.96068e-05)
(0.0286896 0 2.12773e-05)
(0.0286609 0 2.43817e-05)
(0.0286299 0 2.59641e-05)
(0.0285991 0 2.50037e-05)
(0.0285695 0 2.34932e-05)
(0.0285397 0 2.44692e-05)
(0.028507 0 2.77107e-05)
(0.0284717 0 2.926e-05)
(0.0284368 0 2.79562e-05)
(0.0284042 0 2.60397e-05)
(0.0283697 0 3.20196e-05)
(0.0283307 0 2.52484e-05)
(0.0283085 0 1.94428e-05)
(0.0282729 0 1.12247e-05)
(0.0282894 0 1.9673e-05)
(0.0281031 0 2.62473e-05)
(0.0286177 0 2.92229e-05)
(0.0270695 0 3.07805e-05)
(0.0303308 0 3.02779e-05)
(0.0243641 0 2.7593e-05)
(-0.206111 0 0.0406628)
(-0.167969 0 -0.00165633)
(-0.176427 0 -0.00846785)
(-0.166715 0 -0.0213587)
(-0.162549 0 -0.0265767)
(-0.155579 0 -0.0281321)
(-0.150863 0 -0.0261302)
(-0.146323 0 -0.0226849)
(-0.142354 0 -0.0202927)
(-0.139167 0 -0.0207039)
(-0.138054 0 -0.021494)
(-0.138205 0 -0.0209599)
(-0.138763 0 -0.0171137)
(-0.140091 0 -0.0101791)
(-0.141306 0 -0.000489974)
(-0.144623 0 0.013029)
(-0.150152 0 0.0287808)
(-0.160011 0 0.0387094)
(-0.169151 0 0.0392599)
(-0.17169 0 0.0390649)
(-0.171489 0 0.0371286)
(-0.169282 0 0.0267526)
(-0.170955 0 0.0158019)
(-0.176648 0 0.0125358)
(-0.181015 0 0.0115316)
(-0.183999 0 0.00761298)
(-0.187085 0 0.00435155)
(-0.189252 0 0.00363592)
(-0.191403 0 0.00403744)
(-0.192866 0 0.00456031)
(-0.194471 0 0.00554723)
(-0.196326 0 0.0060909)
(-0.198993 0 0.0053827)
(-0.201519 0 0.0045007)
(-0.203883 0 0.00443179)
(-0.205081 0 0.0047467)
(-0.206001 0 0.00360234)
(-0.20622 0 0.000509305)
(-0.206188 0 -0.00192639)
(-0.206571 0 -0.00218748)
(-0.206623 0 -0.00100581)
(-0.206195 0 0.00224213)
(-0.206498 0 0.00345988)
(-0.207088 0 0.00336846)
(-0.207681 0 0.00147454)
(-0.207236 0 -0.00236456)
(-0.206971 0 -0.00366635)
(-0.20624 0 -0.00341204)
(-0.205047 0 -0.00101944)
(-0.204685 0 0.00058659)
(-0.204737 0 0.000801629)
(-0.204929 0 0.000215754)
(-0.204947 0 -0.00168404)
(-0.204729 0 -0.00330093)
(-0.203505 0 -0.00387943)
(-0.201964 0 -0.00424539)
(-0.200191 0 -0.00536811)
(-0.198222 0 -0.00642406)
(-0.196179 0 -0.00665461)
(-0.194479 0 -0.00564542)
(-0.193023 0 -0.00321725)
(-0.191447 0 -0.00157641)
(-0.189454 0 -0.00216096)
(-0.186718 0 -0.00427001)
(-0.183935 0 -0.00591727)
(-0.181847 0 -0.0051049)
(-0.180522 0 -0.00326181)
(-0.179233 0 -0.00334567)
(-0.177312 0 -0.00591589)
(-0.174941 0 -0.00942035)
(-0.171851 0 -0.0125077)
(-0.167574 0 -0.0154508)
(-0.162855 0 -0.0175928)
(-0.158429 0 -0.0200167)
(-0.154082 0 -0.02282)
(-0.150575 0 -0.0275081)
(-0.147465 0 -0.0343475)
(-0.146054 0 -0.0408792)
(-0.135955 0 -0.0431882)
(-0.122311 0 -0.0299404)
(-0.109478 0 -0.0255398)
(-0.0800946 0 -0.00851821)
(-0.0655656 0 0.00527654)
(-0.055273 0 0.0106752)
(-0.0509025 0 0.0142049)
(-0.0510289 0 0.00921013)
(-0.0530447 0 0.00614547)
(-0.0566249 0 0.00531564)
(-0.0643087 0 0.0037273)
(-0.0681564 0 0.00193179)
(-0.0699752 0 -0.000369547)
(-0.0708648 0 -0.000640469)
(-0.0709718 0 -0.00171705)
(-0.0705672 0 -0.00210026)
(-0.0701843 0 -0.00288994)
(-0.0696394 0 -0.00325968)
(-0.0688201 0 -0.00537153)
(-0.068824 0 -0.0063018)
(-0.0692994 0 -0.00771033)
(-0.0716872 0 -0.00562229)
(-0.0684435 0 -0.003803)
(-0.0661048 0 -0.00588707)
(-0.0572704 0 -0.00272035)
(-0.0573515 0 0.0012514)
(-0.0542077 0 0.0053879)
(-0.0538254 0 0.00497958)
(-0.0530015 0 0.0014055)
(-0.0532686 0 0.000612368)
(-0.0540286 0 -0.00109285)
(-0.0557342 0 -0.000789319)
(-0.0559423 0 -0.000757237)
(-0.0556373 0 -0.000208425)
(-0.0555705 0 -0.000539967)
(-0.0551183 0 -0.00153785)
(-0.0551029 0 -0.0033046)
(-0.0552037 0 -0.00507614)
(-0.0552407 0 -0.00685351)
(-0.0559416 0 -0.00623472)
(-0.0530178 0 -0.00309652)
(-0.0512314 0 -0.00297204)
(-0.0450085 0 -0.0007384)
(-0.0450108 0 0.000865115)
(-0.0432919 0 0.00312023)
(-0.0436632 0 0.00248243)
(-0.0435165 0 0.00038278)
(-0.0442471 0 0.000367557)
(-0.0452246 0 0.000230582)
(-0.045472 0 0.000469094)
(-0.0454738 0 0.000714657)
(-0.0456881 0 0.000611074)
(-0.0457417 0 0.000278015)
(-0.0459791 0 0.000256015)
(-0.0461817 0 9.74516e-05)
(-0.0462723 0 0.000140694)
(-0.0463077 0 0.00012203)
(-0.0463139 0 0.000159505)
(-0.0463164 0 9.46314e-05)
(-0.046322 0 2.20437e-05)
(-0.0463142 0 -1.31065e-05)
(-0.0463238 0 -7.02385e-05)
(-0.0462707 0 -0.000126918)
(-0.0462098 0 -0.000188435)
(-0.0461121 0 -0.000251254)
(-0.0459964 0 -0.000288116)
(-0.0458598 0 -0.000326033)
(-0.0457055 0 -0.000386809)
(-0.0455179 0 -0.000466152)
(-0.045296 0 -0.000555966)
(-0.0450438 0 -0.000630592)
(-0.0447782 0 -0.000668607)
(-0.0444972 0 -0.000697076)
(-0.0441828 0 -0.000743786)
(-0.0438329 0 -0.000838049)
(-0.0434448 0 -0.00094427)
(-0.0430268 0 -0.00101575)
(-0.0425971 0 -0.00105544)
(-0.0421494 0 -0.00110411)
(-0.041668 0 -0.00116798)
(-0.0411411 0 -0.00125292)
(-0.040576 0 -0.00132292)
(-0.0399955 0 -0.0013821)
(-0.0393972 0 -0.00145452)
(-0.0387696 0 -0.00153385)
(-0.0381029 0 -0.0016121)
(-0.0374057 0 -0.00165672)
(-0.0366945 0 -0.00169964)
(-0.0359477 0 -0.00180024)
(-0.0351559 0 -0.00190694)
(-0.0343307 0 -0.00196203)
(-0.0334953 0 -0.00198282)
(-0.0326365 0 -0.00205239)
(-0.0317346 0 -0.00218299)
(-0.0307889 0 -0.00228438)
(-0.0298088 0 -0.00233114)
(-0.0288191 0 -0.00235433)
(-0.0277952 0 -0.00242014)
(-0.0267372 0 -0.00254887)
(-0.0256448 0 -0.00265341)
(-0.0245155 0 -0.00270548)
(-0.0233616 0 -0.00275057)
(-0.0221679 0 -0.00283806)
(-0.0209365 0 -0.00293272)
(-0.0196996 0 -0.00295359)
(-0.0184489 0 -0.00296774)
(-0.0171727 0 -0.0030305)
(-0.0158788 0 -0.00312675)
(-0.0145481 0 -0.00321672)
(-0.0131917 0 -0.00323467)
(-0.0118254 0 -0.00321821)
(-0.0104519 0 -0.00320264)
(-0.00910348 0 -0.00319305)
(-0.00776941 0 -0.00320417)
(-0.0064353 0 -0.00321052)
(-0.00510025 0 -0.00318911)
(-0.00376251 0 -0.00311252)
(-0.0024422 0 -0.00303423)
(-0.00115648 0 -0.00295963)
(8.62487e-05 0 -0.00290141)
(0.00130498 0 -0.00287363)
(0.00251264 0 -0.00283986)
(0.0037056 0 -0.00276774)
(0.0048583 0 -0.00265944)
(0.00597474 0 -0.00257226)
(0.00706947 0 -0.0025184)
(0.00814543 0 -0.00248719)
(0.00920087 0 -0.00245615)
(0.0102278 0 -0.0023981)
(0.0112268 0 -0.00232374)
(0.0122018 0 -0.0022553)
(0.0131595 0 -0.00221285)
(0.014099 0 -0.00218422)
(0.0150156 0 -0.00212768)
(0.0158984 0 -0.00204441)
(0.0167559 0 -0.0019832)
(0.0175999 0 -0.00195473)
(0.0184283 0 -0.00192829)
(0.0192358 0 -0.00188717)
(0.0200227 0 -0.00182368)
(0.0207835 0 -0.00174073)
(0.0215163 0 -0.00167854)
(0.0222252 0 -0.00164112)
(0.0229172 0 -0.00161685)
(0.0235948 0 -0.00158023)
(0.0242507 0 -0.00152472)
(0.0248842 0 -0.00145191)
(0.0254923 0 -0.0013867)
(0.0260756 0 -0.00133805)
(0.0266365 0 -0.00129537)
(0.0271782 0 -0.00125959)
(0.0277009 0 -0.00121625)
(0.028203 0 -0.00115526)
(0.028681 0 -0.00108429)
(0.029133 0 -0.00103098)
(0.0295627 0 -0.000987526)
(0.0299739 0 -0.000942725)
(0.0303668 0 -0.000898768)
(0.0307389 0 -0.000850368)
(0.0310885 0 -0.000791887)
(0.0314111 0 -0.00073305)
(0.0317086 0 -0.000681518)
(0.0319848 0 -0.000629039)
(0.0322412 0 -0.000575321)
(0.0324796 0 -0.00052637)
(0.0326978 0 -0.00048108)
(0.0328924 0 -0.0004378)
(0.033065 0 -0.000391508)
(0.0332157 0 -0.000333682)
(0.0333425 0 -0.000263259)
(0.0334483 0 -0.000219136)
(0.0335363 0 -0.000186977)
(0.0336059 0 -0.000143071)
(0.0336535 0 -9.13897e-05)
(0.0336763 0 -3.42353e-05)
(0.0336784 0 1.97549e-05)
(0.0336637 0 6.2881e-05)
(0.0336317 0 0.00010629)
(0.0335782 0 0.000150416)
(0.0335045 0 0.000194532)
(0.0334066 0 0.000245473)
(0.0332871 0 0.000292662)
(0.0331551 0 0.000335431)
(0.0330076 0 0.000374342)
(0.0328412 0 0.000409138)
(0.0326571 0 0.000450498)
(0.0324524 0 0.00050139)
(0.0322269 0 0.00055431)
(0.0319829 0 0.000599004)
(0.0317247 0 0.000623748)
(0.0314545 0 0.000649353)
(0.0311688 0 0.000685132)
(0.0308672 0 0.000721371)
(0.0305479 0 0.000762507)
(0.0302137 0 0.000809678)
(0.0298656 0 0.000843729)
(0.0295037 0 0.000868254)
(0.0291273 0 0.000895595)
(0.0287379 0 0.000923638)
(0.0283382 0 0.000951039)
(0.0279273 0 0.000975912)
(0.0275072 0 0.000998003)
(0.0270752 0 0.00102936)
(0.0266282 0 0.00106969)
(0.0261699 0 0.00109133)
(0.0257058 0 0.00109931)
(0.0252357 0 0.001114)
(0.0247558 0 0.00113404)
(0.0242661 0 0.00115176)
(0.0237697 0 0.00117093)
(0.0232675 0 0.00119619)
(0.0227579 0 0.00121311)
(0.0222434 0 0.00121946)
(0.0217243 0 0.00122488)
(0.0211987 0 0.00123354)
(0.0206685 0 0.00124153)
(0.0201374 0 0.00125673)
(0.0196028 0 0.00127104)
(0.0190676 0 0.001271)
(0.018528 0 0.00127249)
(0.0179825 0 0.00127288)
(0.017439 0 0.00126746)
(0.0169003 0 0.00127225)
(0.0163638 0 0.00127644)
(0.0158278 0 0.00126794)
(0.0152869 0 0.00125961)
(0.0147504 0 0.0012482)
(0.0142251 0 0.00124242)
(0.0137036 0 0.00123214)
(0.0131846 0 0.00121668)
(0.0126682 0 0.00119615)
(0.012163 0 0.00117585)
(0.0116649 0 0.00116516)
(0.0111763 0 0.00115361)
(0.0106925 0 0.00113418)
(0.0102136 0 0.00110439)
(0.00974777 0 0.00107629)
(0.00929308 0 0.00105897)
(0.00884804 0 0.00104232)
(0.00841083 0 0.00101926)
(0.00797812 0 0.000997688)
(0.00755242 0 0.000976003)
(0.00713695 0 0.000960604)
(0.00673011 0 0.000950735)
(0.00632979 0 0.000935158)
(0.00593361 0 0.000918596)
(0.00553982 0 0.00090891)
(0.0051475 0 0.000908311)
(0.00476011 0 0.000908993)
(0.00437542 0 0.000901501)
(0.0039936 0 0.000893132)
(0.00361197 0 0.000890366)
(0.00322991 0 0.000894613)
(0.00284973 0 0.00090288)
(0.00247104 0 0.000900695)
(0.002095 0 0.000887955)
(0.0017241 0 0.000871179)
(0.00135766 0 0.000855986)
(0.00099708 0 0.000842037)
(0.000644303 0 0.000827388)
(0.000299999 0 0.000812079)
(-3.68462e-05 0 0.000790074)
(-0.000365515 0 0.000763939)
(-0.000685134 0 0.000737593)
(-0.000993051 0 0.000712076)
(-0.00129152 0 0.000691016)
(-0.00157966 0 0.000668141)
(-0.00185428 0 0.000638745)
(-0.00211785 0 0.000607527)
(-0.00236991 0 0.000577398)
(-0.00261055 0 0.000551321)
(-0.00283924 0 0.000526873)
(-0.00305553 0 0.000499609)
(-0.00325958 0 0.000467648)
(-0.00345151 0 0.000435921)
(-0.00363111 0 0.00040943)
(-0.00379811 0 0.000382651)
(-0.0039531 0 0.000352653)
(-0.00409673 0 0.000322637)
(-0.00422834 0 0.000293544)
(-0.0043467 0 0.000264767)
(-0.00445254 0 0.000235825)
(-0.00454613 0 0.000207121)
(-0.00462817 0 0.000179186)
(-0.00469837 0 0.000151165)
(-0.00475633 0 0.000125232)
(-0.00480292 0 9.92742e-05)
(-0.00483769 0 7.35337e-05)
(-0.00486168 0 4.60445e-05)
(-0.00487476 0 1.99272e-05)
(-0.0048771 0 -5.49966e-06)
(-0.00486917 0 -2.81338e-05)
(-0.00485088 0 -5.12135e-05)
(-0.0048228 0 -7.40534e-05)
(-0.00478486 0 -9.85491e-05)
(-0.00473702 0 -0.000121013)
(-0.0046797 0 -0.000142042)
(-0.00461395 0 -0.000160995)
(-0.00453991 0 -0.000180564)
(-0.00445874 0 -0.000198679)
(-0.00436862 0 -0.000215514)
(-0.00427157 0 -0.000230909)
(-0.00416664 0 -0.000247263)
(-0.00405664 0 -0.000264331)
(-0.00393929 0 -0.000279891)
(-0.00381666 0 -0.000294254)
(-0.00368801 0 -0.000305286)
(-0.00355532 0 -0.000318)
(-0.00341714 0 -0.000325348)
(-0.00327538 0 -0.000338369)
(-0.00312835 0 -0.000346201)
(-0.00297966 0 -0.000357915)
(-0.00282654 0 -0.000359811)
(-0.00267161 0 -0.000369632)
(-0.00251249 0 -0.000372213)
(-0.00235387 0 -0.000381963)
(-0.00219256 0 -0.000380814)
(-0.00203181 0 -0.000388927)
(-0.00186771 0 -0.000386397)
(-0.00170515 0 -0.000390603)
(-0.00153984 0 -0.000386091)
(-0.00137722 0 -0.000389333)
(-0.00121522 0 -0.000387484)
(-0.00105261 0 -0.000390737)
(-0.000892856 0 -0.000388613)
(-0.000730791 0 -0.000384119)
(-0.000574323 0 -0.00038612)
(-0.000410941 0 -0.000374469)
(-0.000262211 0 -0.000386355)
(-9.82721e-05 0 -0.000369777)
(4.05595e-05 0 -0.000384447)
(0.000203811 0 -0.000356163)
(0.000346638 0 -0.000364125)
(0.00050655 0 -0.000334469)
(0.000654858 0 -0.000338892)
(0.000799699 0 -0.000329807)
(0.000945481 0 -0.000340432)
(0.00105796 0 -0.000310412)
(0.00118555 0 -0.000309089)
(0.00133422 0 -0.000245702)
(0.00146728 0 -0.000232271)
(0.00162042 0 -0.000290553)
(0.00174778 0 -0.000328754)
(0.00172036 0 -0.000314188)
(0.00178153 0 -0.00029741)
(0.00196355 0 4.51538e-05)
(0.00208013 0 0.000133904)
(0.00252214 0 -0.000249534)
(0.00269422 0 -0.000446359)
(0.00370556 0 -0.000857959)
(0.00408399 0 -0.00078295)
(0.00466157 0 -0.00124042)
(0.00462038 0 -0.00130663)
(0.00482805 0 -0.00098206)
(0.004893 0 -0.000764428)
(0.00507601 0 -0.00052345)
(0.00523173 0 -0.000405559)
(0.00540176 0 -0.000267883)
(0.00559334 0 -0.000366807)
(0.0057331 0 -0.000317097)
(0.00589097 0 -0.000422621)
(0.00579267 0 -0.000311726)
(0.00582544 0 -0.00033194)
(0.0060011 0 0.000165352)
(0.00611549 0 0.000277443)
(0.00666599 0 -0.000172226)
(0.00686818 0 -0.000475226)
(0.00818872 0 -0.00100948)
(0.00866677 0 -0.000989981)
(0.00942562 0 -0.00161576)
(0.00934362 0 -0.00170546)
(0.00957406 0 -0.00129817)
(0.00965587 0 -0.0010492)
(0.00985101 0 -0.000723982)
(0.00994683 0 -0.000629863)
(0.0100249 0 -0.000509509)
(0.0101394 0 -0.000394315)
(0.010245 0 -0.000240648)
(0.0104019 0 -5.46202e-05)
(0.0105275 0 -7.33614e-05)
(0.0107798 0 -0.000153354)
(0.0106424 0 -0.000182981)
(0.0102461 0 -0.000358206)
(0.010207 0 0.000136794)
(0.0100698 0 0.00113658)
(0.0106762 0 0.000932587)
(0.0118378 0 0.000333581)
(0.0138104 0 -0.00095125)
(0.0175201 0 -0.00283702)
(0.0193796 0 -0.00370155)
(0.021539 0 -0.00606477)
(0.0224503 0 -0.00588576)
(0.0225235 0 -0.00517526)
(0.0230681 0 -0.0038262)
(0.0236437 0 -0.00280431)
(0.0241641 0 -0.00211884)
(0.0246432 0 -0.00166598)
(0.0250824 0 -0.00136303)
(0.0254799 0 -0.00112181)
(0.0258356 0 -0.00093874)
(0.0261538 0 -0.000804748)
(0.0264417 0 -0.000714174)
(0.0267 0 -0.000620906)
(0.0269301 0 -0.000540596)
(0.0271373 0 -0.000492688)
(0.0273253 0 -0.000437245)
(0.0274953 0 -0.000386755)
(0.0276499 0 -0.000362379)
(0.0277913 0 -0.000321058)
(0.0279202 0 -0.000285102)
(0.0280378 0 -0.000259608)
(0.0281456 0 -0.000252209)
(0.0282446 0 -0.000222389)
(0.0283336 0 -0.000190418)
(0.0284137 0 -0.000170871)
(0.0284867 0 -0.000157895)
(0.0285528 0 -0.000145083)
(0.0286121 0 -0.000131766)
(0.0286658 0 -0.000118512)
(0.0287146 0 -0.000107339)
(0.0287578 0 -9.25414e-05)
(0.0287958 0 -8.16007e-05)
(0.0288291 0 -6.09605e-05)
(0.0288597 0 -6.47514e-05)
(0.028887 0 -7.12271e-05)
(0.0289119 0 -6.88591e-05)
(0.028934 0 -6.20672e-05)
(0.0289533 0 -5.33014e-05)
(0.02897 0 -4.43621e-05)
(0.0289845 0 -3.56908e-05)
(0.0289962 0 -2.96513e-05)
(0.0290051 0 -2.4121e-05)
(0.0290118 0 -1.74454e-05)
(0.0290156 0 -1.00997e-05)
(0.0290163 0 -3.67228e-06)
(0.0290144 0 -1.00884e-05)
(0.0290113 0 5.86632e-06)
(0.0290037 0 2.32358e-05)
(0.0289951 0 2.95785e-05)
(0.0289847 0 3.14917e-05)
(0.0289726 0 3.31417e-05)
(0.028959 0 3.38141e-05)
(0.0289439 0 3.45909e-05)
(0.0289276 0 3.61488e-05)
(0.0289104 0 3.88387e-05)
(0.0288921 0 4.31166e-05)
(0.0288722 0 4.82104e-05)
(0.0288506 0 5.24229e-05)
(0.0288277 0 5.4331e-05)
(0.028804 0 5.42464e-05)
(0.0287795 0 5.47491e-05)
(0.0287537 0 5.84595e-05)
(0.0287255 0 6.5302e-05)
(0.0286954 0 7.13019e-05)
(0.0286655 0 7.22278e-05)
(0.0286363 0 6.97416e-05)
(0.0286062 0 6.91313e-05)
(0.0285739 0 7.40509e-05)
(0.0285401 0 8.09806e-05)
(0.0285074 0 8.04446e-05)
(0.0284761 0 7.76521e-05)
(0.0284431 0 7.64982e-05)
(0.0284088 0 9.12982e-05)