/*--------------------------------*- C++ -*----------------------------------*\
| =========                 |                                                 |
| \\      /  F ield         | OpenFOAM: The Open Source CFD Toolbox           |
|  \\    /   O peration     | Version:  v2006                                 |
|   \\  /    A nd           | Website:  www.openfoam.com                      |
|    \\/     M anipulation  |                                                 |
\*---------------------------------------------------------------------------*/
FoamFile
{
    version     2.0;
    format      ascii;
    class       volScalarField;
    location    "3.6";
    object      k;
}
// * * * * * * * * * * * * * * * * * * * * * * * * * * * * * * * * * * * * * //

dimensions      [0 2 -2 0 0 0 0];


internalField   nonuniform List<scalar> 
33000
(
3.203e-08
3.54943e-08
3.88346e-08
4.22592e-08
4.56931e-08
4.90149e-08
5.21102e-08
5.48868e-08
5.73321e-08
5.94412e-08
6.12604e-08
6.28162e-08
6.41262e-08
6.52107e-08
6.60536e-08
6.66736e-08
6.70849e-08
6.73269e-08
6.747e-08
6.76719e-08
6.80338e-08
6.85231e-08
6.89862e-08
6.92287e-08
6.91917e-08
6.90518e-08
6.90448e-08
6.92663e-08
6.95868e-08
6.98902e-08
7.02511e-08
7.07343e-08
7.11899e-08
7.14173e-08
7.1361e-08
7.12979e-08
7.14496e-08
7.18267e-08
7.22262e-08
7.23749e-08
7.21943e-08
7.19976e-08
7.21471e-08
7.27116e-08
7.3396e-08
7.37186e-08
7.34829e-08
7.29042e-08
7.24114e-08
7.2232e-08
7.23183e-08
7.25614e-08
7.27299e-08
7.25609e-08
7.2091e-08
7.15831e-08
7.13366e-08
7.1308e-08
7.12041e-08
7.08402e-08
7.0426e-08
7.03488e-08
7.07684e-08
7.13366e-08
7.14787e-08
7.11396e-08
7.06404e-08
7.03257e-08
7.03006e-08
7.01387e-08
6.95082e-08
6.85166e-08
6.73302e-08
6.61213e-08
6.48862e-08
6.32607e-08
6.12596e-08
5.96747e-08
6.01976e-08
6.12733e-08
5.90603e-08
5.6346e-08
5.40393e-08
5.25476e-08
5.17107e-08
5.14634e-08
5.10826e-08
5.03489e-08
4.99425e-08
4.9861e-08
4.98412e-08
4.98211e-08
4.98064e-08
4.95352e-08
4.9124e-08
4.85006e-08
4.77852e-08
4.67192e-08
4.52564e-08
4.30341e-08
4.08122e-08
3.93061e-08
3.80994e-08
3.69533e-08
3.60717e-08
3.5992e-08
3.6337e-08
3.6463e-08
3.61449e-08
3.57351e-08
3.54765e-08
3.51302e-08
3.49074e-08
3.47122e-08
3.44669e-08
3.40576e-08
3.36242e-08
3.30197e-08
3.25027e-08
3.22318e-08
3.21086e-08
3.20531e-08
3.18629e-08
3.18606e-08
3.20715e-08
3.2176e-08
3.22494e-08
3.23143e-08
3.23305e-08
3.23538e-08
3.24058e-08
3.24423e-08
3.24861e-08
3.25142e-08
3.25226e-08
3.25192e-08
3.25164e-08
3.25207e-08
3.25205e-08
3.25128e-08
3.25121e-08
3.2513e-08
3.25033e-08
3.2478e-08
3.2454e-08
3.24388e-08
3.2445e-08
3.2477e-08
3.25349e-08
3.26183e-08
3.2728e-08
3.2845e-08
3.29389e-08
3.30076e-08
3.30584e-08
3.30922e-08
3.3106e-08
3.30887e-08
3.3045e-08
3.29979e-08
3.29553e-08
3.29162e-08
3.28723e-08
3.28279e-08
3.27877e-08
3.27491e-08
3.27064e-08
3.26592e-08
3.26139e-08
3.25732e-08
3.25327e-08
3.24883e-08
3.24442e-08
3.2406e-08
3.23713e-08
3.23361e-08
3.23017e-08
3.22712e-08
3.22453e-08
3.2223e-08
3.2203e-08
3.21834e-08
3.2165e-08
3.21504e-08
3.21405e-08
3.21315e-08
3.21197e-08
3.21098e-08
3.21036e-08
3.20975e-08
3.20889e-08
3.20787e-08
3.20693e-08
3.2059e-08
3.20455e-08
3.20282e-08
3.20067e-08
3.19822e-08
3.19538e-08
3.19191e-08
3.18806e-08
3.18399e-08
3.17951e-08
3.17449e-08
3.16906e-08
3.16322e-08
3.15698e-08
3.15068e-08
3.14417e-08
3.1372e-08
3.12978e-08
3.12216e-08
3.11431e-08
3.1061e-08
3.09761e-08
3.08875e-08
3.07975e-08
3.07057e-08
3.06111e-08
3.05138e-08
3.04137e-08
3.03105e-08
3.0206e-08
3.01007e-08
2.99927e-08
2.98821e-08
2.97687e-08
2.96537e-08
2.9536e-08
2.94174e-08
2.92978e-08
2.91762e-08
2.90532e-08
2.89272e-08
2.87996e-08
2.86714e-08
2.85421e-08
2.84113e-08
2.82783e-08
2.8145e-08
2.80107e-08
2.78752e-08
2.77377e-08
2.75994e-08
2.74592e-08
2.73182e-08
2.71779e-08
2.70353e-08
2.68912e-08
2.67477e-08
2.66029e-08
2.64574e-08
2.63109e-08
2.6164e-08
2.6017e-08
2.5869e-08
2.572e-08
2.55703e-08
2.5421e-08
2.52709e-08
2.5119e-08
2.49665e-08
2.48146e-08
2.46627e-08
2.45096e-08
2.43567e-08
2.42032e-08
2.40489e-08
2.38946e-08
2.37403e-08
2.35868e-08
2.34322e-08
2.32775e-08
2.31223e-08
2.29672e-08
2.28124e-08
2.26571e-08
2.2502e-08
2.23471e-08
2.21929e-08
2.20393e-08
2.1885e-08
2.17308e-08
2.15763e-08
2.14229e-08
2.12694e-08
2.11161e-08
2.09627e-08
2.08094e-08
2.06566e-08
2.05041e-08
2.03526e-08
2.02021e-08
2.00522e-08
1.99029e-08
1.97586e-08
1.96195e-08
1.94864e-08
1.93591e-08
1.92369e-08
1.91205e-08
1.90097e-08
1.89045e-08
1.8805e-08
1.8711e-08
1.86221e-08
1.8538e-08
1.84588e-08
1.83851e-08
1.83164e-08
1.82517e-08
1.81911e-08
1.81344e-08
1.8083e-08
1.80364e-08
1.79941e-08
1.79559e-08
1.79215e-08
1.78912e-08
1.78644e-08
1.78404e-08
1.78192e-08
1.77996e-08
1.77832e-08
1.77689e-08
1.77553e-08
1.77398e-08
1.77222e-08
1.77031e-08
1.76807e-08
1.76556e-08
1.76274e-08
1.7596e-08
1.75613e-08
1.75237e-08
1.74832e-08
1.74398e-08
1.73936e-08
1.73445e-08
1.72925e-08
1.72377e-08
1.7181e-08
1.71219e-08
1.70604e-08
1.69964e-08
1.69298e-08
1.68609e-08
1.67901e-08
1.67173e-08
1.66425e-08
1.65652e-08
1.64863e-08
1.64061e-08
1.63243e-08
1.62409e-08
1.6156e-08
1.60701e-08
1.59831e-08
1.5895e-08
1.58055e-08
1.5715e-08
1.5624e-08
1.5532e-08
1.54394e-08
1.53464e-08
1.52527e-08
1.51588e-08
1.50648e-08
1.49703e-08
1.48758e-08
1.47808e-08
1.46856e-08
1.45904e-08
1.44953e-08
1.44003e-08
1.43053e-08
1.42106e-08
1.41165e-08
1.40226e-08
1.39293e-08
1.38362e-08
1.37435e-08
1.36513e-08
1.35598e-08
1.3469e-08
1.33791e-08
1.32899e-08
1.32015e-08
1.31137e-08
1.30268e-08
1.29406e-08
1.28553e-08
1.27704e-08
1.26866e-08
1.26039e-08
1.25218e-08
1.24408e-08
1.23608e-08
1.22816e-08
1.22031e-08
1.21255e-08
1.20486e-08
1.19728e-08
1.18979e-08
1.18242e-08
1.17514e-08
1.16798e-08
1.16092e-08
1.15394e-08
1.14709e-08
1.14034e-08
1.13369e-08
1.12713e-08
1.12064e-08
1.11432e-08
1.10792e-08
1.10167e-08
1.09545e-08
1.08912e-08
1.08307e-08
1.0775e-08
1.07126e-08
1.06576e-08
1.05986e-08
1.05196e-08
1.04667e-08
1.04309e-08
1.03534e-08
1.03561e-08
1.03175e-08
1.04176e-08
1.03733e-08
1.03855e-08
1.03457e-08
1.03248e-08
1.02834e-08
1.02516e-08
1.02108e-08
1.01748e-08
1.01325e-08
1.00929e-08
1.00513e-08
1.00015e-08
9.96043e-09
9.92568e-09
9.87444e-09
9.85187e-09
9.81295e-09
9.822e-09
9.78341e-09
9.76036e-09
9.72592e-09
9.69348e-09
9.66005e-09
9.62702e-09
9.59379e-09
9.55992e-09
9.51768e-09
9.48185e-09
9.45639e-09
9.4076e-09
9.39058e-09
9.35211e-09
9.23826e-09
9.21403e-09
9.2279e-09
9.10357e-09
9.35483e-09
9.34442e-09
1.02685e-08
1.02702e-08
1.05634e-08
1.06836e-08
1.07814e-08
1.0847e-08
1.08924e-08
1.09237e-08
1.09447e-08
1.09578e-08
1.09649e-08
1.09673e-08
1.09657e-08
1.09607e-08
1.0953e-08
1.09431e-08
1.09313e-08
1.09178e-08
1.09026e-08
1.08859e-08
1.08678e-08
1.08485e-08
1.08284e-08
1.08074e-08
1.07859e-08
1.07637e-08
1.07409e-08
1.07175e-08
1.06934e-08
1.06686e-08
1.0643e-08
1.06165e-08
1.05891e-08
1.05606e-08
1.05313e-08
1.05013e-08
1.04709e-08
1.04402e-08
1.04094e-08
1.03787e-08
1.03481e-08
1.03178e-08
1.02878e-08
1.02583e-08
1.02291e-08
1.02002e-08
1.01716e-08
1.01431e-08
1.01146e-08
1.0086e-08
1.00573e-08
1.00285e-08
9.99955e-09
9.97059e-09
9.94184e-09
9.91352e-09
9.88563e-09
9.85791e-09
9.83009e-09
9.80196e-09
9.77392e-09
9.74648e-09
9.71978e-09
9.69345e-09
9.66683e-09
9.63987e-09
9.61306e-09
9.58695e-09
9.56122e-09
9.53505e-09
9.50841e-09
9.48162e-09
9.45535e-09
9.42941e-09
9.40311e-09
9.37619e-09
9.35099e-09
9.32696e-09
9.24817e-09
9.4567e-09
8.9649e-09
1.10293e-08
1.1268e-08
1.14903e-08
1.17145e-08
1.19555e-08
1.2196e-08
1.24228e-08
1.26284e-08
1.28152e-08
1.29856e-08
1.31414e-08
1.32816e-08
1.34041e-08
1.35115e-08
1.36039e-08
1.36806e-08
1.3746e-08
1.38017e-08
1.38514e-08
1.39024e-08
1.3963e-08
1.40312e-08
1.40991e-08
1.41541e-08
1.4186e-08
1.42035e-08
1.42242e-08
1.426e-08
1.43086e-08
1.43585e-08
1.44087e-08
1.446e-08
1.44996e-08
1.45196e-08
1.45214e-08
1.45271e-08
1.45507e-08
1.45831e-08
1.46075e-08
1.46106e-08
1.45963e-08
1.45881e-08
1.46019e-08
1.46371e-08
1.46752e-08
1.46793e-08
1.46372e-08
1.45665e-08
1.44932e-08
1.44406e-08
1.44222e-08
1.44245e-08
1.44201e-08
1.43855e-08
1.43226e-08
1.42521e-08
1.42126e-08
1.42097e-08
1.42194e-08
1.42262e-08
1.42576e-08
1.43544e-08
1.45263e-08
1.47271e-08
1.48886e-08
1.50173e-08
1.51758e-08
1.5414e-08
1.57283e-08
1.60755e-08
1.64702e-08
1.70189e-08
1.78458e-08
1.91116e-08
2.08726e-08
2.30077e-08
2.52446e-08
2.73029e-08
2.90544e-08
3.02618e-08
3.06755e-08
3.00852e-08
2.70401e-08
2.25086e-08
1.70048e-08
1.39449e-08
1.26099e-08
1.17937e-08
1.14114e-08
1.12596e-08
1.12011e-08
1.11978e-08
1.12573e-08
1.14164e-08
1.17705e-08
1.24303e-08
1.35968e-08
1.49812e-08
1.68127e-08
1.74273e-08
1.60702e-08
1.37502e-08
1.18414e-08
1.10935e-08
1.07925e-08
1.06846e-08
1.06541e-08
1.06368e-08
1.0603e-08
1.05804e-08
1.05828e-08
1.05878e-08
1.06142e-08
1.06988e-08
1.0863e-08
1.11607e-08
1.16609e-08
1.18125e-08
1.13855e-08
1.09183e-08
1.06618e-08
1.05579e-08
1.05213e-08
1.0507e-08
1.05018e-08
1.04802e-08
1.04583e-08
1.04482e-08
1.04458e-08
1.04429e-08
1.04392e-08
1.04399e-08
1.04474e-08
1.04546e-08
1.04545e-08
1.04499e-08
1.04529e-08
1.04617e-08
1.04667e-08
1.04645e-08
1.04682e-08
1.04771e-08
1.04826e-08
1.04851e-08
1.04913e-08
1.04977e-08
1.04985e-08
1.04958e-08
1.04998e-08
1.05081e-08
1.0515e-08
1.05218e-08
1.05207e-08
1.05114e-08
1.05093e-08
1.05196e-08
1.05296e-08
1.05281e-08
1.05208e-08
1.05216e-08
1.05313e-08
1.0537e-08
1.05317e-08
1.05279e-08
1.05357e-08
1.05447e-08
1.05434e-08
1.05379e-08
1.05401e-08
1.05503e-08
1.05545e-08
1.05467e-08
1.05419e-08
1.05492e-08
1.05565e-08
1.05555e-08
1.0551e-08
1.05492e-08
1.05505e-08
1.05527e-08
1.05551e-08
1.0554e-08
1.05519e-08
1.05538e-08
1.05576e-08
1.05558e-08
1.05473e-08
1.05447e-08
1.05501e-08
1.05541e-08
1.05519e-08
1.05491e-08
1.05501e-08
1.055e-08
1.05468e-08
1.05427e-08
1.0543e-08
1.05459e-08
1.05427e-08
1.05331e-08
1.05283e-08
1.05315e-08
1.05381e-08
1.05351e-08
1.05254e-08
1.05153e-08
1.05117e-08
1.05165e-08
1.05155e-08
1.05051e-08
1.04947e-08
1.04942e-08
1.04918e-08
1.04849e-08
1.04753e-08
1.0462e-08
1.04588e-08
1.04575e-08
1.04539e-08
1.04502e-08
1.04354e-08
1.04209e-08
1.0416e-08
1.04159e-08
1.04113e-08
1.04028e-08
1.03964e-08
1.03878e-08
1.03753e-08
1.03707e-08
1.03709e-08
1.03655e-08
1.03584e-08
1.03491e-08
1.03374e-08
1.03361e-08
1.03366e-08
1.0334e-08
1.03262e-08
1.03216e-08
1.03165e-08
1.0311e-08
1.03063e-08
1.03032e-08
1.02987e-08
1.0293e-08
1.02966e-08
1.0293e-08
1.02829e-08
1.028e-08
1.0279e-08
1.0276e-08
1.02737e-08
1.0269e-08
1.02674e-08
1.02649e-08
1.02589e-08
1.02563e-08
1.02566e-08
1.02527e-08
1.02476e-08
1.02421e-08
1.02421e-08
1.02413e-08
1.02385e-08
1.02352e-08
1.02318e-08
1.02254e-08
1.02211e-08
1.022e-08
1.02192e-08
1.02171e-08
1.02136e-08
1.02099e-08
1.02067e-08
1.02025e-08
1.01999e-08
1.01969e-08
1.01939e-08
1.01907e-08
1.01891e-08
1.01871e-08
1.01821e-08
1.01778e-08
1.01745e-08
1.01718e-08
1.01699e-08
1.01674e-08
1.01637e-08
1.01604e-08
1.01563e-08
1.01529e-08
1.01511e-08
1.01484e-08
1.0145e-08
1.0142e-08
1.01388e-08
1.01357e-08
1.01329e-08
1.01298e-08
1.01268e-08
1.01238e-08
1.01206e-08
1.01179e-08
1.01148e-08
1.01118e-08
1.01085e-08
1.01053e-08
1.01031e-08
1.00999e-08
1.00968e-08
1.00937e-08
1.00906e-08
1.00878e-08
1.00848e-08
1.00819e-08
1.00789e-08
1.00761e-08
1.00733e-08
1.00705e-08
1.00676e-08
1.00647e-08
1.0062e-08
1.00596e-08
1.00568e-08
1.00541e-08
1.00513e-08
1.00491e-08
1.00467e-08
1.00443e-08
1.0042e-08
1.00397e-08
1.00375e-08
1.00354e-08
1.00334e-08
1.00315e-08
1.00297e-08
1.0028e-08
1.00262e-08
1.00246e-08
1.00231e-08
1.00218e-08
1.00205e-08
1.00192e-08
1.0018e-08
1.00169e-08
1.00159e-08
1.0015e-08
1.00142e-08
1.00133e-08
1.00126e-08
1.00119e-08
1.00114e-08
1.00108e-08
1.00102e-08
1.00097e-08
1.00093e-08
1.00089e-08
1.00085e-08
1.00081e-08
1.00078e-08
1.00075e-08
1.00072e-08
1.00069e-08
1.00067e-08
1.00064e-08
1.00061e-08
1.0006e-08
1.00057e-08
1.00055e-08
1.00054e-08
1.00052e-08
1.00049e-08
1.00047e-08
1.00045e-08
1.00043e-08
1.0004e-08
1.00038e-08
1.00035e-08
1.00033e-08
1.0003e-08
1.00027e-08
1.00024e-08
1.0002e-08
1.00016e-08
1.00013e-08
1.0001e-08
1.00007e-08
1.00003e-08
9.99997e-09
9.9996e-09
9.99921e-09
9.99879e-09
9.99837e-09
9.998e-09
9.99762e-09
9.99723e-09
9.99685e-09
9.99645e-09
9.99608e-09
9.99566e-09
9.99527e-09
9.99485e-09
9.99447e-09
9.99403e-09
9.99368e-09
9.99314e-09
9.99276e-09
9.99214e-09
9.99149e-09
9.99105e-09
9.99053e-09
9.99056e-09
9.99012e-09
9.99034e-09
9.98964e-09
9.98807e-09
9.98778e-09
9.98841e-09
9.98846e-09
9.9932e-09
9.99134e-09
9.98615e-09
9.98468e-09
9.98175e-09
9.9811e-09
9.9899e-09
9.99025e-09
9.98403e-09
9.98572e-09
9.99028e-09
9.98676e-09
9.98264e-09
9.98093e-09
9.97978e-09
9.9787e-09
9.97912e-09
9.97937e-09
9.98194e-09
9.98155e-09
9.97933e-09
9.97878e-09
9.97691e-09
9.97584e-09
9.97575e-09
9.97623e-09
9.97825e-09
9.97931e-09
9.98115e-09
9.97877e-09
9.97904e-09
9.97779e-09
9.98095e-09
9.97805e-09
9.976e-09
9.9746e-09
9.97278e-09
9.97484e-09
9.97642e-09
9.99701e-09
9.99352e-09
1.00035e-08
9.99853e-09
1.00346e-08
1.00363e-08
1.00613e-08
1.00621e-08
1.004e-08
1.00238e-08
1.00392e-08
1.00271e-08
1.00059e-08
9.996e-09
9.98838e-09
9.98306e-09
9.97908e-09
9.97602e-09
9.97363e-09
9.97178e-09
9.97041e-09
9.96949e-09
9.96889e-09
9.96856e-09
9.96845e-09
9.96854e-09
9.96882e-09
9.96921e-09
9.96965e-09
9.97005e-09
9.97039e-09
9.97067e-09
9.9709e-09
9.97113e-09
9.97139e-09
9.97165e-09
9.972e-09
9.97239e-09
9.97274e-09
9.97306e-09
9.97336e-09
9.97365e-09
9.9739e-09
9.97411e-09
9.9743e-09
9.97448e-09
9.97463e-09
9.97476e-09
9.97483e-09
9.97484e-09
9.9748e-09
9.97468e-09
9.97452e-09
9.97434e-09
9.97419e-09
9.9741e-09
9.97406e-09
9.97406e-09
9.97407e-09
9.97411e-09
9.97418e-09
9.97428e-09
9.97432e-09
9.97423e-09
9.974e-09
9.97377e-09
9.97367e-09
9.97372e-09
9.97366e-09
9.97335e-09
9.97289e-09
9.97245e-09
9.97252e-09
9.97295e-09
9.97299e-09
9.97253e-09
9.97203e-09
9.97213e-09
9.97281e-09
9.97286e-09
9.97241e-09
9.97232e-09
9.97285e-09
9.97275e-09
9.97207e-09
9.97179e-09
9.97158e-09
9.97784e-09
9.97581e-09
1.00085e-08
9.98146e-09
1.01263e-08
1.01549e-08
1.01819e-08
1.021e-08
1.02384e-08
1.02665e-08
1.02935e-08
1.03187e-08
1.03418e-08
1.03627e-08
1.03821e-08
1.03999e-08
1.04154e-08
1.04293e-08
1.04414e-08
1.04521e-08
1.04614e-08
1.04697e-08
1.04775e-08
1.04858e-08
1.04947e-08
1.0504e-08
1.05125e-08
1.05193e-08
1.05245e-08
1.05293e-08
1.0535e-08
1.05418e-08
1.05486e-08
1.05543e-08
1.05599e-08
1.0567e-08
1.0576e-08
1.05848e-08
1.05898e-08
1.05893e-08
1.05853e-08
1.05806e-08
1.05782e-08
1.05777e-08
1.05765e-08
1.0574e-08
1.05722e-08
1.05727e-08
1.05744e-08
1.05737e-08
1.0568e-08
1.05582e-08
1.05479e-08
1.05405e-08
1.05368e-08
1.05355e-08
1.0534e-08
1.05299e-08
1.05218e-08
1.05124e-08
1.05054e-08
1.05023e-08
1.05015e-08
1.05023e-08
1.05086e-08
1.05251e-08
1.05524e-08
1.05847e-08
1.06151e-08
1.06461e-08
1.06871e-08
1.07434e-08
1.08094e-08
1.088e-08
1.09642e-08
1.10849e-08
1.12758e-08
1.15898e-08
1.20845e-08
1.28054e-08
1.37635e-08
1.48686e-08
1.59623e-08
1.67614e-08
1.71996e-08
1.72073e-08
1.67644e-08
1.59052e-08
1.48321e-08
1.35249e-08
1.22736e-08
1.12564e-08
1.0626e-08
1.03143e-08
1.01726e-08
1.01171e-08
1.0096e-08
1.00915e-08
1.01047e-08
1.01504e-08
1.02571e-08
1.04594e-08
1.0823e-08
1.12422e-08
1.12084e-08
1.09191e-08
1.05812e-08
1.03482e-08
1.01953e-08
1.01144e-08
1.00778e-08
1.00619e-08
1.00528e-08
1.00483e-08
1.00468e-08
1.0046e-08
1.00462e-08
1.00476e-08
1.00514e-08
1.00609e-08
1.00822e-08
1.01037e-08
1.01001e-08
1.0091e-08
1.00788e-08
1.00656e-08
1.00552e-08
1.0049e-08
1.00448e-08
1.00418e-08
1.00398e-08
1.0039e-08
1.00386e-08
1.00383e-08
1.00378e-08
1.00375e-08
1.00377e-08
1.0038e-08
1.0038e-08
1.00377e-08
1.00379e-08
1.00383e-08
1.00385e-08
1.00384e-08
1.00386e-08
1.00391e-08
1.00393e-08
1.00394e-08
1.00398e-08
1.00402e-08
1.00401e-08
1.00399e-08
1.00402e-08
1.00408e-08
1.00412e-08
1.00415e-08
1.00415e-08
1.00409e-08
1.00409e-08
1.00416e-08
1.00422e-08
1.00421e-08
1.00417e-08
1.00418e-08
1.00425e-08
1.00429e-08
1.00425e-08
1.00423e-08
1.00428e-08
1.00435e-08
1.00435e-08
1.00431e-08
1.00433e-08
1.0044e-08
1.00443e-08
1.00438e-08
1.00434e-08
1.00439e-08
1.00444e-08
1.00443e-08
1.0044e-08
1.00439e-08
1.00439e-08
1.0044e-08
1.00441e-08
1.0044e-08
1.00438e-08
1.00439e-08
1.00441e-08
1.00438e-08
1.00431e-08
1.00428e-08
1.0043e-08
1.00431e-08
1.00429e-08
1.00426e-08
1.00425e-08
1.00422e-08
1.00418e-08
1.00413e-08
1.00412e-08
1.00412e-08
1.00408e-08
1.004e-08
1.00395e-08
1.00395e-08
1.00397e-08
1.00393e-08
1.00385e-08
1.00378e-08
1.00374e-08
1.00375e-08
1.00372e-08
1.00365e-08
1.00358e-08
1.00356e-08
1.00353e-08
1.00348e-08
1.00342e-08
1.00335e-08
1.00332e-08
1.0033e-08
1.00327e-08
1.00324e-08
1.00317e-08
1.00309e-08
1.00306e-08
1.00305e-08
1.00302e-08
1.00298e-08
1.00294e-08
1.0029e-08
1.00285e-08
1.00282e-08
1.00281e-08
1.00279e-08
1.00275e-08
1.00271e-08
1.00266e-08
1.00264e-08
1.00263e-08
1.00262e-08
1.00259e-08
1.00257e-08
1.00254e-08
1.0025e-08
1.00248e-08
1.00247e-08
1.00245e-08
1.00242e-08
1.00243e-08
1.00242e-08
1.00238e-08
1.00236e-08
1.00235e-08
1.00234e-08
1.00233e-08
1.00232e-08
1.00231e-08
1.0023e-08
1.00228e-08
1.00227e-08
1.00227e-08
1.00226e-08
1.00224e-08
1.00222e-08
1.00221e-08
1.00221e-08
1.0022e-08
1.00219e-08
1.00218e-08
1.00216e-08
1.00214e-08
1.00214e-08
1.00213e-08
1.00212e-08
1.00211e-08
1.0021e-08
1.00209e-08
1.00207e-08
1.00206e-08
1.00205e-08
1.00204e-08
1.00203e-08
1.00202e-08
1.00202e-08
1.002e-08
1.00199e-08
1.00197e-08
1.00196e-08
1.00195e-08
1.00194e-08
1.00193e-08
1.00192e-08
1.00191e-08
1.00189e-08
1.00189e-08
1.00188e-08
1.00186e-08
1.00185e-08
1.00184e-08
1.00183e-08
1.00182e-08
1.00181e-08
1.00179e-08
1.00178e-08
1.00177e-08
1.00176e-08
1.00175e-08
1.00174e-08
1.00172e-08
1.00171e-08
1.0017e-08
1.00169e-08
1.00168e-08
1.00167e-08
1.00166e-08
1.00165e-08
1.00164e-08
1.00163e-08
1.00162e-08
1.00161e-08
1.0016e-08
1.00159e-08
1.00158e-08
1.00157e-08
1.00156e-08
1.00155e-08
1.00154e-08
1.00153e-08
1.00152e-08
1.00151e-08
1.0015e-08
1.0015e-08
1.00149e-08
1.00148e-08
1.00147e-08
1.00146e-08
1.00146e-08
1.00145e-08
1.00144e-08
1.00143e-08
1.00143e-08
1.00142e-08
1.00141e-08
1.00141e-08
1.0014e-08
1.00139e-08
1.00139e-08
1.00138e-08
1.00137e-08
1.00137e-08
1.00136e-08
1.00135e-08
1.00134e-08
1.00134e-08
1.00133e-08
1.00133e-08
1.00132e-08
1.00131e-08
1.00131e-08
1.0013e-08
1.00129e-08
1.00128e-08
1.00128e-08
1.00127e-08
1.00126e-08
1.00126e-08
1.00125e-08
1.00125e-08
1.00124e-08
1.00124e-08
1.00124e-08
1.00123e-08
1.00123e-08
1.00123e-08
1.00123e-08
1.00122e-08
1.00122e-08
1.00122e-08
1.00122e-08
1.00122e-08
1.00122e-08
1.00122e-08
1.00122e-08
1.00121e-08
1.00121e-08
1.00121e-08
1.00121e-08
1.00121e-08
1.0012e-08
1.0012e-08
1.0012e-08
1.00119e-08
1.00119e-08
1.00118e-08
1.00118e-08
1.00118e-08
1.00117e-08
1.00117e-08
1.00117e-08
1.00116e-08
1.00116e-08
1.00115e-08
1.00115e-08
1.00114e-08
1.00114e-08
1.00113e-08
1.00113e-08
1.00112e-08
1.00111e-08
1.00111e-08
1.0011e-08
1.0011e-08
1.00109e-08
1.00109e-08
1.00108e-08
1.00106e-08
1.00106e-08
1.00106e-08
1.00106e-08
1.00106e-08
1.00105e-08
1.00103e-08
1.00102e-08
1.001e-08
1.00097e-08
1.00082e-08
1.00084e-08
1.00098e-08
1.00097e-08
1.00098e-08
1.00098e-08
1.00098e-08
1.00097e-08
1.00095e-08
1.00095e-08
1.00093e-08
1.00094e-08
1.00092e-08
1.00089e-08
1.00089e-08
1.00089e-08
1.00087e-08
1.00084e-08
1.00078e-08
1.00077e-08
1.00086e-08
1.00085e-08
1.00085e-08
1.00085e-08
1.00085e-08
1.00084e-08
1.00084e-08
1.00081e-08
1.00079e-08
1.00077e-08
1.0008e-08
1.00075e-08
1.00074e-08
1.00087e-08
1.00083e-08
1.00082e-08
1.00077e-08
1.00104e-08
1.00105e-08
1.00126e-08
1.00122e-08
1.00096e-08
1.00108e-08
1.00107e-08
1.00097e-08
1.00095e-08
1.00084e-08
1.00068e-08
1.0006e-08
1.00057e-08
1.00052e-08
1.00046e-08
1.00041e-08
1.00037e-08
1.00032e-08
1.00028e-08
1.00024e-08
1.00021e-08
1.00018e-08
1.00016e-08
1.00017e-08
1.0002e-08
1.00025e-08
1.0003e-08
1.00034e-08
1.00038e-08
1.00041e-08
1.00044e-08
1.00046e-08
1.00048e-08
1.00049e-08
1.00051e-08
1.00052e-08
1.00053e-08
1.00054e-08
1.00055e-08
1.00055e-08
1.00055e-08
1.00055e-08
1.00054e-08
1.00054e-08
1.00054e-08
1.00055e-08
1.00056e-08
1.00057e-08
1.00057e-08
1.00057e-08
1.00057e-08
1.00056e-08
1.00055e-08
1.00055e-08
1.00055e-08
1.00055e-08
1.00054e-08
1.00054e-08
1.00053e-08
1.00053e-08
1.00054e-08
1.00055e-08
1.00056e-08
1.00055e-08
1.00054e-08
1.00052e-08
1.0005e-08
1.00048e-08
1.00047e-08
1.00048e-08
1.00049e-08
1.00052e-08
1.00051e-08
1.00046e-08
1.00046e-08
1.00048e-08
1.00053e-08
1.00051e-08
1.00044e-08
1.00044e-08
1.00046e-08
1.00048e-08
1.00043e-08
1.00043e-08
1.00045e-08
1.00046e-08
1.00048e-08
1.0004e-08
1.00078e-08
1.0005e-08
1.00412e-08
1.0047e-08
1.00528e-08
1.00586e-08
1.00643e-08
1.00696e-08
1.00745e-08
1.00789e-08
1.00827e-08
1.00859e-08
1.00886e-08
1.00913e-08
1.00933e-08
1.0095e-08
1.00964e-08
1.00976e-08
1.00987e-08
1.00996e-08
1.01004e-08
1.01013e-08
1.01022e-08
1.01031e-08
1.01039e-08
1.01045e-08
1.01051e-08
1.01056e-08
1.01061e-08
1.01067e-08
1.01074e-08
1.01081e-08
1.01088e-08
1.01097e-08
1.01108e-08
1.01119e-08
1.01124e-08
1.01122e-08
1.01115e-08
1.01105e-08
1.01098e-08
1.01092e-08
1.01087e-08
1.01081e-08
1.01076e-08
1.01073e-08
1.0107e-08
1.01064e-08
1.01055e-08
1.01042e-08
1.01029e-08
1.01018e-08
1.01009e-08
1.01003e-08
1.00996e-08
1.00988e-08
1.00976e-08
1.00961e-08
1.00947e-08
1.00936e-08
1.00927e-08
1.00923e-08
1.00928e-08
1.00946e-08
1.00978e-08
1.01018e-08
1.01061e-08
1.01114e-08
1.01186e-08
1.01279e-08
1.01385e-08
1.01502e-08
1.0165e-08
1.01864e-08
1.02196e-08
1.02735e-08
1.03623e-08
1.05029e-08
1.07123e-08
1.09995e-08
1.13608e-08
1.17822e-08
1.22084e-08
1.24827e-08
1.25242e-08
1.23835e-08
1.21196e-08
1.18052e-08
1.14488e-08
1.11252e-08
1.08421e-08
1.05874e-08
1.03802e-08
1.02247e-08
1.01405e-08
1.00889e-08
1.00615e-08
1.00487e-08
1.00449e-08
1.00513e-08
1.00736e-08
1.01118e-08
1.0129e-08
1.01344e-08
1.01282e-08
1.01003e-08
1.00749e-08
1.00573e-08
1.00466e-08
1.00416e-08
1.00398e-08
1.00401e-08
1.00381e-08
1.00354e-08
1.00333e-08
1.00319e-08
1.00308e-08
1.003e-08
1.00296e-08
1.00295e-08
1.00295e-08
1.00298e-08
1.003e-08
1.00298e-08
1.00296e-08
1.00295e-08
1.00295e-08
1.00299e-08
1.00304e-08
1.00298e-08
1.0029e-08
1.00282e-08
1.00276e-08
1.00271e-08
1.00267e-08
1.00262e-08
1.00259e-08
1.00257e-08
1.00256e-08
1.00255e-08
1.00255e-08
1.00255e-08
1.00255e-08
1.00254e-08
1.00254e-08
1.00253e-08
1.00253e-08
1.00252e-08
1.00252e-08
1.00251e-08
1.0025e-08
1.0025e-08
1.0025e-08
1.00249e-08
1.00249e-08
1.00248e-08
1.00248e-08
1.00248e-08
1.00248e-08
1.00247e-08
1.00247e-08
1.00247e-08
1.00246e-08
1.00246e-08
1.00246e-08
1.00245e-08
1.00245e-08
1.00245e-08
1.00244e-08
1.00244e-08
1.00243e-08
1.00243e-08
1.00243e-08
1.00242e-08
1.00241e-08
1.00241e-08
1.00241e-08
1.00241e-08
1.0024e-08
1.0024e-08
1.00239e-08
1.00239e-08
1.00239e-08
1.00238e-08
1.00237e-08
1.00237e-08
1.00236e-08
1.00236e-08
1.00235e-08
1.00234e-08
1.00234e-08
1.00234e-08
1.00233e-08
1.00232e-08
1.00232e-08
1.00231e-08
1.0023e-08
1.00229e-08
1.00229e-08
1.00228e-08
1.00228e-08
1.00227e-08
1.00226e-08
1.00225e-08
1.00225e-08
1.00224e-08
1.00223e-08
1.00222e-08
1.00222e-08
1.00221e-08
1.0022e-08
1.00219e-08
1.00219e-08
1.00218e-08
1.00217e-08
1.00216e-08
1.00216e-08
1.00215e-08
1.00214e-08
1.00213e-08
1.00213e-08
1.00212e-08
1.00211e-08
1.0021e-08
1.0021e-08
1.00209e-08
1.00208e-08
1.00207e-08
1.00207e-08
1.00206e-08
1.00205e-08
1.00205e-08
1.00204e-08
1.00203e-08
1.00202e-08
1.00202e-08
1.00201e-08
1.002e-08
1.00199e-08
1.00198e-08
1.00198e-08
1.00198e-08
1.00196e-08
1.00195e-08
1.00194e-08
1.00194e-08
1.00193e-08
1.00191e-08
1.0019e-08
1.00191e-08
1.00189e-08
1.00187e-08
1.00187e-08
1.00187e-08
1.00186e-08
1.00185e-08
1.00185e-08
1.00184e-08
1.00183e-08
1.00182e-08
1.00183e-08
1.00182e-08
1.00181e-08
1.0018e-08
1.0018e-08
1.0018e-08
1.00179e-08
1.00179e-08
1.00178e-08
1.00178e-08
1.00177e-08
1.00176e-08
1.00176e-08
1.00176e-08
1.00175e-08
1.00174e-08
1.00174e-08
1.00174e-08
1.00173e-08
1.00172e-08
1.00172e-08
1.00171e-08
1.00171e-08
1.0017e-08
1.0017e-08
1.00169e-08
1.00168e-08
1.00168e-08
1.00167e-08
1.00167e-08
1.00166e-08
1.00166e-08
1.00165e-08
1.00165e-08
1.00164e-08
1.00163e-08
1.00163e-08
1.00162e-08
1.00162e-08
1.00161e-08
1.0016e-08
1.0016e-08
1.00159e-08
1.00158e-08
1.00158e-08
1.00157e-08
1.00157e-08
1.00156e-08
1.00155e-08
1.00155e-08
1.00154e-08
1.00154e-08
1.00153e-08
1.00152e-08
1.00152e-08
1.00151e-08
1.0015e-08
1.0015e-08
1.00149e-08
1.00149e-08
1.00148e-08
1.00148e-08
1.00147e-08
1.00146e-08
1.00146e-08
1.00145e-08
1.00145e-08
1.00144e-08
1.00144e-08
1.00143e-08
1.00143e-08
1.00142e-08
1.00142e-08
1.00141e-08
1.00141e-08
1.0014e-08
1.0014e-08
1.00139e-08
1.00138e-08
1.00138e-08
1.00137e-08
1.00137e-08
1.00136e-08
1.00136e-08
1.00135e-08
1.00135e-08
1.00134e-08
1.00133e-08
1.00133e-08
1.00132e-08
1.00131e-08
1.00131e-08
1.0013e-08
1.00129e-08
1.00128e-08
1.00128e-08
1.00127e-08
1.00127e-08
1.00126e-08
1.00125e-08
1.00124e-08
1.00124e-08
1.00123e-08
1.00122e-08
1.00122e-08
1.00121e-08
1.0012e-08
1.0012e-08
1.00119e-08
1.00119e-08
1.00118e-08
1.00118e-08
1.00117e-08
1.00117e-08
1.00117e-08
1.00116e-08
1.00116e-08
1.00116e-08
1.00116e-08
1.00116e-08
1.00116e-08
1.00115e-08
1.00115e-08
1.00115e-08
1.00115e-08
1.00114e-08
1.00114e-08
1.00114e-08
1.00114e-08
1.00113e-08
1.00113e-08
1.00113e-08
1.00112e-08
1.00112e-08
1.00111e-08
1.00111e-08
1.00111e-08
1.00111e-08
1.0011e-08
1.0011e-08
1.00109e-08
1.00109e-08
1.00108e-08
1.00108e-08
1.00107e-08
1.00107e-08
1.00106e-08
1.00106e-08
1.00105e-08
1.00105e-08
1.00104e-08
1.00103e-08
1.00102e-08
1.00101e-08
1.00102e-08
1.00102e-08
1.00101e-08
1.001e-08
1.00098e-08
1.00098e-08
1.00097e-08
1.00094e-08
1.00082e-08
1.00083e-08
1.00095e-08
1.00095e-08
1.00095e-08
1.00094e-08
1.00095e-08
1.00094e-08
1.00093e-08
1.00092e-08
1.00091e-08
1.00091e-08
1.0009e-08
1.00088e-08
1.00088e-08
1.00087e-08
1.00086e-08
1.00084e-08
1.00081e-08
1.00081e-08
1.00084e-08
1.00084e-08
1.00084e-08
1.00083e-08
1.00083e-08
1.00082e-08
1.00082e-08
1.0008e-08
1.00077e-08
1.00077e-08
1.00082e-08
1.0008e-08
1.00087e-08
1.00082e-08
1.00068e-08
1.00077e-08
1.00073e-08
1.001e-08
1.00102e-08
1.00124e-08
1.00119e-08
1.00096e-08
1.00101e-08
1.00099e-08
1.00098e-08
1.00097e-08
1.00095e-08
1.0009e-08
1.00086e-08
1.00082e-08
1.00077e-08
1.00073e-08
1.00069e-08
1.00065e-08
1.0006e-08
1.00057e-08
1.00053e-08
1.0005e-08
1.00047e-08
1.00044e-08
1.00042e-08
1.00039e-08
1.00037e-08
1.00037e-08
1.00038e-08
1.0004e-08
1.00043e-08
1.00045e-08
1.00047e-08
1.00048e-08
1.00049e-08
1.0005e-08
1.00051e-08
1.00051e-08
1.00052e-08
1.00054e-08
1.00055e-08
1.00056e-08
1.00056e-08
1.00056e-08
1.00055e-08
1.00054e-08
1.00053e-08
1.00053e-08
1.00053e-08
1.00054e-08
1.00055e-08
1.00056e-08
1.00056e-08
1.00056e-08
1.00056e-08
1.00055e-08
1.00055e-08
1.00055e-08
1.00055e-08
1.00054e-08
1.00053e-08
1.00052e-08
1.00052e-08
1.00052e-08
1.00054e-08
1.00055e-08
1.00055e-08
1.00054e-08
1.00052e-08
1.00049e-08
1.00048e-08
1.00047e-08
1.00048e-08
1.00049e-08
1.00051e-08
1.00051e-08
1.00048e-08
1.00046e-08
1.00047e-08
1.00052e-08
1.00053e-08
1.00046e-08
1.00045e-08
1.00045e-08
1.00047e-08
1.00044e-08
1.00044e-08
1.00045e-08
1.00048e-08
1.00049e-08
1.00048e-08
1.00041e-08
1.00079e-08
1.00051e-08
1.0033e-08
1.00361e-08
1.00394e-08
1.00427e-08
1.00457e-08
1.00483e-08
1.00503e-08
1.0052e-08
1.00531e-08
1.00539e-08
1.00545e-08
1.00548e-08
1.0055e-08
1.00551e-08
1.0055e-08
1.0055e-08
1.00549e-08
1.00548e-08
1.00548e-08
1.00547e-08
1.00547e-08
1.00546e-08
1.00545e-08
1.00544e-08
1.00543e-08
1.00542e-08
1.00542e-08
1.00541e-08
1.0054e-08
1.00539e-08
1.00538e-08
1.00536e-08
1.00535e-08
1.00534e-08
1.00533e-08
1.0053e-08
1.00527e-08
1.00523e-08
1.0052e-08
1.00517e-08
1.00514e-08
1.00511e-08
1.00508e-08
1.00506e-08
1.00504e-08
1.00501e-08
1.00498e-08
1.00494e-08
1.0049e-08
1.00486e-08
1.00482e-08
1.00478e-08
1.00475e-08
1.00472e-08
1.00468e-08
1.00464e-08
1.0046e-08
1.00456e-08
1.00453e-08
1.00451e-08
1.00449e-08
1.0045e-08
1.00452e-08
1.00456e-08
1.0046e-08
1.00466e-08
1.00475e-08
1.00486e-08
1.00499e-08
1.00515e-08
1.00536e-08
1.00566e-08
1.00612e-08
1.00687e-08
1.00814e-08
1.01027e-08
1.01372e-08
1.01909e-08
1.02693e-08
1.03743e-08
1.04975e-08
1.06206e-08
1.07188e-08
1.07813e-08
1.07828e-08
1.07358e-08
1.06486e-08
1.05421e-08
1.0443e-08
1.03684e-08
1.03192e-08
1.02902e-08
1.02607e-08
1.02207e-08
1.01636e-08
1.01185e-08
1.00793e-08
1.00558e-08
1.00441e-08
1.00383e-08
1.00362e-08
1.00361e-08
1.00365e-08
1.00349e-08
1.0034e-08
1.00332e-08
1.00321e-08
1.00314e-08
1.00315e-08
1.00326e-08
1.00335e-08
1.00353e-08
1.00374e-08
1.00365e-08
1.00342e-08
1.00324e-08
1.00311e-08
1.00299e-08
1.00289e-08
1.0028e-08
1.00275e-08
1.00272e-08
1.00272e-08
1.00273e-08
1.00274e-08
1.00275e-08
1.00278e-08
1.00281e-08
1.0029e-08
1.00298e-08
1.00294e-08
1.00286e-08
1.00279e-08
1.00273e-08
1.00266e-08
1.00262e-08
1.00259e-08
1.00256e-08
1.00254e-08
1.00253e-08
1.00252e-08
1.00251e-08
1.00251e-08
1.0025e-08
1.00249e-08
1.00248e-08
1.00247e-08
1.00247e-08
1.00246e-08
1.00245e-08
1.00245e-08
1.00244e-08
1.00244e-08
1.00244e-08
1.00244e-08
1.00243e-08
1.00243e-08
1.00243e-08
1.00243e-08
1.00242e-08
1.00242e-08
1.00241e-08
1.00241e-08
1.00241e-08
1.0024e-08
1.00239e-08
1.00239e-08
1.00239e-08
1.00238e-08
1.00237e-08
1.00237e-08
1.00236e-08
1.00236e-08
1.00235e-08
1.00235e-08
1.00234e-08
1.00234e-08
1.00233e-08
1.00233e-08
1.00232e-08
1.00232e-08
1.00231e-08
1.00231e-08
1.0023e-08
1.0023e-08
1.00229e-08
1.00229e-08
1.00228e-08
1.00228e-08
1.00227e-08
1.00227e-08
1.00226e-08
1.00226e-08
1.00225e-08
1.00225e-08
1.00224e-08
1.00223e-08
1.00223e-08
1.00222e-08
1.00222e-08
1.00221e-08
1.0022e-08
1.0022e-08
1.00219e-08
1.00219e-08
1.00218e-08
1.00217e-08
1.00217e-08
1.00216e-08
1.00215e-08
1.00215e-08
1.00214e-08
1.00213e-08
1.00212e-08
1.00212e-08
1.00211e-08
1.0021e-08
1.0021e-08
1.00209e-08
1.00208e-08
1.00207e-08
1.00207e-08
1.00206e-08
1.00205e-08
1.00205e-08
1.00204e-08
1.00203e-08
1.00203e-08
1.00202e-08
1.00201e-08
1.00201e-08
1.002e-08
1.002e-08
1.00199e-08
1.00199e-08
1.00198e-08
1.00197e-08
1.00197e-08
1.00197e-08
1.00196e-08
1.00195e-08
1.00195e-08
1.00194e-08
1.00194e-08
1.00193e-08
1.00192e-08
1.00191e-08
1.00191e-08
1.00189e-08
1.00187e-08
1.00187e-08