0 	0.999953
0.006666667 	0.9999519
0.01333333 	0.9999509
0.02 	0.9999498
0.02666667 	0.9999488
0.03333333 	0.9999477
0.04 	0.9999466
0.04666667 	0.9999454
0.05333333 	0.9999443
0.06 	0.9999431
0.06666667 	0.999942
0.07333333 	0.9999399
0.08 	0.9999378
0.08666667 	0.9999357
0.09333333 	0.9999336
0.1 	0.9999315
0.1066667 	0.9999321
0.1133333 	0.9999327
0.12 	0.9999333
0.1266667 	0.9999339
0.1333333 	0.9999345
0.14 	0.9999381
0.1466667 	0.9999416
0.1533333 	0.9999452
0.16 	0.9999488
0.1666667 	0.9999524
0.1733333 	0.9999517
0.18 	0.9999511
0.1866667 	0.9999505
0.1933333 	0.9999498
0.2 	0.9999492
0.2066667 	0.9999463
0.2133333 	0.9999435
0.22 	0.9999406
0.2266667 	0.9999378
0.2333333 	0.9999349
0.24 	0.999936
0.2466667 	0.9999371
0.2533333 	0.9999382
0.26 	0.9999393
0.2666667 	0.9999404
0.2733333 	0.9999446
0.28 	0.9999487
0.2866667 	0.9999528
0.2933333 	0.9999569
0.3 	0.999961
0.3066667 	0.9999639
0.3133333 	0.9999668
0.32 	0.9999698
0.3266667 	0.9999727
0.3333333 	0.9999756
0.34 	0.9999751
0.3466667 	0.9999747
0.3533333 	0.9999743
0.36 	0.9999738
0.3666667 	0.9999734
0.3733333 	0.9999688
0.38 	0.9999643
0.3866667 	0.9999598
0.3933333 	0.9999553
0.4 	0.9999508
0.4066667 	0.9999421
0.4133333 	0.9999335
0.42 	0.9999248
0.4266667 	0.9999162
0.4333333 	0.9999076
0.44 	0.9999054
0.4466667 	0.9999033
0.4533333 	0.9999011
0.46 	0.999899
0.4666667 	0.9998968
0.4733333 	0.9999083
0.48 	0.9999197
0.4866667 	0.9999312
0.4933333 	0.9999426
0.5 	0.9999541
0.5066667 	0.999963
0.5133333 	0.9999719
0.52 	0.9999808
0.5266667 	0.9999897
0.5333333 	0.9999986
0.54 	0.9999992
0.5466667 	0.9999999
0.5533333 	1.000001
0.56 	1.000001
0.5666667 	1.000002
0.5733333 	0.9999988
0.58 	0.9999958
0.5866667 	0.9999929
0.5933333 	0.9999899
0.6 	0.9999869
0.6066667 	0.9999807
0.6133333 	0.9999746
0.62 	0.9999685
0.6266667 	0.9999624
0.6333333 	0.9999563
0.64 	0.9999581
0.6466667 	0.9999599
0.6533333 	0.9999617
0.66 	0.9999634
0.6666667 	0.9999652
0.6733333 	0.999971
0.68 	0.9999768
0.6866667 	0.9999826
0.6933333 	0.9999884
0.7 	0.9999942
0.7066667 	0.999992
0.7133333 	0.9999898
0.72 	0.9999876
0.7266667 	0.9999853
0.7333333 	0.9999831
0.74 	0.9994321
0.7466667 	0.9988811
0.7533333 	0.9983301
0.76 	0.9977791
0.7666667 	0.9972281
0.7733333 	0.9828547
0.78 	0.9684814
0.7866667 	0.954108
0.7933333 	0.9397346
0.8 	0.9253613
0.8066667 	0.8493868
0.8133333 	0.7734124
0.82 	0.697438
0.8266667 	0.6214635
0.8333333 	0.5454891
0.84 	0.4608019
0.8466667 	0.3761148
0.8533333 	0.2914277
0.86 	0.2067406
0.8666667 	0.1220534
0.8733333 	0.09859263
0.88 	0.07513184
0.8866667 	0.05167105
0.8933333 	0.02821026
0.9 	0.004749475
0.9066667 	0.003813401
0.9133333 	0.002877326
0.92 	0.001941252
0.9266667 	0.001005177
0.9333333 	6.910278e-05
0.94 	5.562564e-05
0.9466667 	4.214851e-05
0.9533333 	2.867138e-05
0.96 	1.519425e-05
0.9666667 	1.71712e-06
0.9733333 	1.37667e-06
0.98 	1.036221e-06
0.9866667 	6.957708e-07
0.9933333 	3.55321e-07
1 	1.487111e-08
1.006667 	1.18994e-08
1.013333 	8.927699e-09
1.02 	5.955994e-09
1.026667 	2.984289e-09
1.033333 	1.25844e-11
1.04 	1.006763e-11
1.046667 	7.550857e-12
1.053333 	5.034086e-12
1.06 	2.517316e-12
1.066667 	5.452254e-16
1.073333 	4.360832e-16
1.08 	3.270668e-16
1.086667 	2.180504e-16
1.093333 	1.09034e-16
1.1 	1.763869e-20
1.106667 	1.411109e-20
1.113333 	1.058348e-20
1.12 	7.055872e-21
1.126667 	3.528265e-21
1.133333 	6.580259e-25
1.14 	5.264249e-25
1.146667 	3.948239e-25
1.153333 	2.632229e-25
1.16 	1.316219e-25
1.166667 	2.09543e-29
1.173333 	1.675828e-29
1.18 	1.256884e-29
1.186667 	8.379403e-30
1.193333 	4.189965e-30
1.2 	5.274979e-34
1.206667 	4.220005e-34
1.213333 	3.16503e-34
1.22 	2.110056e-34
1.226667 	1.055082e-34
1.233333 	1.0742e-38
1.24 	8.59364e-39
1.246667 	6.445276e-39
1.253333 	4.296912e-39
1.26 	2.148548e-39
1.266667 	1.838218e-43
1.273333 	1.469721e-43
1.28 	1.102297e-43
1.286667 	7.34874e-44
1.293333 	3.674506e-44
1.3 	2.726342e-48
1.306667 	2.181081e-48
1.313333 	1.63582e-48
1.32 	1.090558e-48
1.326667 	5.452972e-49
1.333333 	3.591485e-53
1.34 	2.873196e-53
1.346667 	2.154908e-53
1.353333 	1.43662e-53
1.36 	7.183312e-54
1.366667 	4.276367e-58
1.373333 	3.41823e-58
1.38 	2.563684e-58
1.386667 	1.709138e-58
1.393333 	8.545922e-59
1.4 	4.637e-63
1.406667 	3.709609e-63
1.413333 	2.782218e-63
1.42 	1.854828e-63
1.426667 	9.27437e-64
1.433333 	4.627544e-68
1.44 	3.702044e-68
1.446667 	2.776544e-68
1.453333 	1.851043e-68
1.46 	9.255431e-69
1.466667 	4.281214e-73
1.473333 	3.421277e-73
1.48 	2.565967e-73
1.486667 	1.710657e-73
1.493333 	8.553468e-74
1.5 	3.68197e-78
1.506667 	2.945582e-78
1.513333 	2.209194e-78
1.52 	1.472806e-78
1.526667 	7.364178e-79
1.533333 	2.968387e-83
1.54 	2.374714e-83
1.546667 	1.781041e-83
1.553333 	1.187368e-83
1.56 	5.936955e-84
1.566667 	2.253784e-88
1.573333 	1.800656e-88
1.58 	1.350496e-88
1.586667 	9.003358e-89
1.593333 	4.50176e-89
1.6 	1.612833e-93
1.606667 	1.290268e-93
1.613333 	9.677039e-94
1.62 	6.451396e-94
1.626667 	3.225753e-94
1.633333 	1.096775e-98
1.64 	8.774216e-99
1.646667 	6.580679e-99
1.653333 	4.387143e-99
1.66 	2.193607e-99
1.666667 	7.110194e-104
1.673333 	5.67939e-104
1.68 	4.259554e-104
1.686667 	2.839717e-104
1.693333 	1.41988e-104
1.7 	4.38047e-109
1.706667 	3.504381e-109
1.713333 	2.628292e-109
1.72 	1.752203e-109
1.726667 	8.761146e-110
1.733333 	2.580029e-114
1.74 	2.064026e-114
1.746667 	1.548023e-114
1.753333 	1.03202e-114
1.76 	5.160174e-115
1.766667 	1.455716e-119
1.773333 	1.16251e-119
1.78 	8.718846e-120
1.786667 	5.81259e-120
1.793333 	2.906334e-120
1.8 	7.836076e-125
1.806667 	6.268868e-125
1.813333 	4.701661e-125
1.82 	3.134454e-125
1.826667 	1.567247e-125
1.833333 	4.046295e-130
1.84 	3.237032e-130
1.846667 	2.427769e-130
1.853333 	1.618506e-130
1.86 	8.092428e-131
1.866667 	-2.022076e-135
1.873333 	-2.496587e-135
1.88 	-2.967051e-135
1.886667 	-3.437515e-135
1.893333 	-3.907979e-135
1.9 	-4.378443e-135
1.906667 	-3.593035e-135
1.913333 	-2.807628e-135
1.92 	-2.02222e-135
1.926667 	-1.236812e-135
1.933333 	-4.514044e-136
1.94 	-3.662929e-136
1.946667 	-2.811814e-136
1.953333 	-1.960699e-136
1.96 	-1.109584e-136
1.966667 	-2.584693e-137
1.973333 	-2.107473e-137
1.98 	-1.630252e-137
1.986667 	-1.153032e-137
1.993333 	-6.758111e-138
2 	-1.985907e-138
