/*--------------------------------*- C++ -*----------------------------------*\
| =========                 |                                                 |
| \\      /  F ield         | OpenFOAM: The Open Source CFD Toolbox           |
|  \\    /   O peration     | Version:  v2006                                 |
|   \\  /    A nd           | Website:  www.openfoam.com                      |
|    \\/     M anipulation  |                                                 |
\*---------------------------------------------------------------------------*/
FoamFile
{
    version     2.0;
    format      ascii;
    class       volScalarField;
    location    "4.7";
    object      k;
}
// * * * * * * * * * * * * * * * * * * * * * * * * * * * * * * * * * * * * * //

dimensions      [0 2 -2 0 0 0 0];


internalField   nonuniform List<scalar> 
33000
(
1.03512e-08
1.07205e-08
1.11537e-08
1.1714e-08
1.24586e-08
1.33965e-08
1.45146e-08
1.59152e-08
1.77984e-08
2.03477e-08
2.37178e-08
2.81507e-08
3.442e-08
4.40518e-08
5.78376e-08
7.48216e-08
9.23824e-08
1.07729e-07
1.19404e-07
1.27437e-07
1.32612e-07
1.35831e-07
1.37819e-07
1.39085e-07
1.39957e-07
1.40639e-07
1.41244e-07
1.41829e-07
1.42409e-07
1.42972e-07
1.435e-07
1.43979e-07
1.44405e-07
1.44778e-07
1.45095e-07
1.45354e-07
1.4555e-07
1.45674e-07
1.45705e-07
1.45615e-07
1.45397e-07
1.45072e-07
1.44679e-07
1.44243e-07
1.43767e-07
1.43233e-07
1.42631e-07
1.41968e-07
1.41269e-07
1.40561e-07
1.39871e-07
1.39217e-07
1.38612e-07
1.38039e-07
1.37451e-07
1.36752e-07
1.35824e-07
1.3456e-07
1.32891e-07
1.30752e-07
1.28066e-07
1.24766e-07
1.20845e-07
1.16331e-07
1.11379e-07
1.06546e-07
1.01829e-07
9.68757e-08
9.15847e-08
8.61949e-08
8.11865e-08
7.70204e-08
7.39581e-08
7.21904e-08
7.20611e-08
7.3267e-08
7.58203e-08
7.98917e-08
8.56579e-08
9.22975e-08
9.77803e-08
1.00224e-07
1.00343e-07
9.8466e-08
9.62604e-08
9.63989e-08
9.62922e-08
9.59674e-08
9.51906e-08
9.3615e-08
9.08936e-08
8.68666e-08
8.24791e-08
7.75976e-08
7.25202e-08
6.77684e-08
6.40769e-08
6.13507e-08
6.06168e-08
6.21994e-08
6.6033e-08
7.00768e-08
7.22142e-08
7.24478e-08
7.17477e-08
7.09967e-08
7.07708e-08
7.04996e-08
7.00393e-08
6.94088e-08
6.8624e-08
6.76965e-08
6.65438e-08
6.50271e-08
6.31233e-08
6.11196e-08
5.96054e-08
5.94398e-08
6.06538e-08
6.18802e-08
6.24004e-08
6.23803e-08
6.2307e-08
6.23454e-08
6.24926e-08
6.26166e-08
6.27003e-08
6.27206e-08
6.2739e-08
6.27529e-08
6.27801e-08
6.2791e-08
6.2785e-08
6.27459e-08
6.26989e-08
6.2644e-08
6.25908e-08
6.25351e-08
6.2475e-08
6.24084e-08
6.23254e-08
6.22272e-08
6.21128e-08
6.1994e-08
6.18637e-08
6.17252e-08
6.15828e-08
6.14459e-08
6.13171e-08
6.11909e-08
6.10546e-08
6.09143e-08
6.07918e-08
6.07435e-08
6.07682e-08
6.08527e-08
6.09856e-08
6.11766e-08
6.14215e-08
6.16596e-08
6.18467e-08
6.19775e-08
6.20607e-08
6.21002e-08
6.20874e-08
6.20178e-08
6.18993e-08
6.17717e-08
6.1651e-08
6.15263e-08
6.13951e-08
6.12683e-08
6.11548e-08
6.1049e-08
6.09398e-08
6.08255e-08
6.0715e-08
6.06159e-08
6.05254e-08
6.04357e-08
6.03439e-08
6.02541e-08
6.01735e-08
6.00995e-08
6.0019e-08
5.99262e-08
5.9835e-08
5.97592e-08
5.96899e-08
5.96128e-08
5.95271e-08
5.94375e-08
5.9346e-08
5.92496e-08
5.91468e-08
5.90422e-08
5.89377e-08
5.88257e-08
5.86991e-08
5.85619e-08
5.843e-08
5.83158e-08
5.8211e-08
5.80963e-08
5.79643e-08
5.78233e-08
5.76896e-08
5.75734e-08
5.74688e-08
5.73575e-08
5.72315e-08
5.71046e-08
5.69937e-08
5.68929e-08
5.67755e-08
5.66341e-08
5.64892e-08
5.63477e-08
5.62149e-08
5.60916e-08
5.59488e-08
5.57694e-08
5.55698e-08
5.53662e-08
5.51729e-08
5.49908e-08
5.48021e-08
5.459e-08
5.43704e-08
5.4153e-08
5.39325e-08
5.37201e-08
5.3524e-08
5.33186e-08
5.30957e-08
5.28761e-08
5.26579e-08
5.24412e-08
5.22307e-08
5.20169e-08
5.17922e-08
5.15669e-08
5.13476e-08
5.1127e-08
5.0893e-08
5.06516e-08
5.04101e-08
5.01826e-08
4.99528e-08
4.9705e-08
4.9449e-08
4.91988e-08
4.89514e-08
4.86964e-08
4.84364e-08
4.8181e-08
4.79163e-08
4.76478e-08
4.73791e-08
4.71072e-08
4.68372e-08
4.65628e-08
4.62806e-08
4.5996e-08
4.57108e-08
4.5429e-08
4.51478e-08
4.48626e-08
4.45705e-08
4.42806e-08
4.40039e-08
4.37428e-08
4.34964e-08
4.32614e-08
4.3032e-08
4.28115e-08
4.26033e-08
4.24094e-08
4.22266e-08
4.20543e-08
4.18964e-08
4.1756e-08
4.16267e-08
4.1505e-08
4.13958e-08
4.12985e-08
4.12059e-08
4.11061e-08
4.0997e-08
4.08757e-08
4.07405e-08
4.0595e-08
4.04401e-08
4.02773e-08
4.01068e-08
3.99253e-08
3.97328e-08
3.95329e-08
3.93246e-08
3.91092e-08
3.88873e-08
3.8657e-08
3.84192e-08
3.81743e-08
3.79232e-08
3.76661e-08
3.74015e-08
3.71338e-08
3.68693e-08
3.66089e-08
3.63514e-08
3.6096e-08
3.58428e-08
3.55925e-08
3.53467e-08
3.51054e-08
3.48677e-08
3.46338e-08
3.44039e-08
3.41778e-08
3.39549e-08
3.37344e-08
3.35164e-08
3.33014e-08
3.3089e-08
3.28783e-08
3.26688e-08
3.24608e-08
3.22545e-08
3.20493e-08
3.18447e-08
3.16405e-08
3.14362e-08
3.12319e-08
3.10273e-08
3.08224e-08
3.06168e-08
3.04105e-08
3.02032e-08
2.99953e-08
2.97867e-08
2.95772e-08
2.9367e-08
2.91561e-08
2.89442e-08
2.87315e-08
2.8518e-08
2.83035e-08
2.8088e-08
2.78715e-08
2.76543e-08
2.74364e-08
2.72177e-08
2.69984e-08
2.67785e-08
2.65584e-08
2.6338e-08
2.61171e-08
2.58959e-08
2.56745e-08
2.5453e-08
2.52313e-08
2.50095e-08
2.47877e-08
2.45663e-08
2.43453e-08
2.41247e-08
2.39047e-08
2.36849e-08
2.34657e-08
2.32469e-08
2.30288e-08
2.28114e-08
2.25947e-08
2.23789e-08
2.2164e-08
2.19502e-08
2.17374e-08
2.15257e-08
2.13151e-08
2.11057e-08
2.08974e-08
2.06903e-08
2.04843e-08
2.02797e-08
2.00763e-08
1.98743e-08
1.96735e-08
1.94742e-08
1.92761e-08
1.90792e-08
1.88838e-08
1.86899e-08
1.84976e-08
1.83067e-08
1.81175e-08
1.79297e-08
1.77433e-08
1.75579e-08
1.73742e-08
1.71915e-08
1.70107e-08
1.68311e-08
1.66531e-08
1.64766e-08
1.63017e-08
1.61285e-08
1.5957e-08
1.57873e-08
1.56191e-08
1.54527e-08
1.52876e-08
1.51243e-08
1.49621e-08
1.48021e-08
1.46424e-08
1.4484e-08
1.43266e-08
1.4169e-08
1.40171e-08
1.38727e-08
1.37255e-08
1.35865e-08
1.3446e-08
1.32815e-08
1.31474e-08
1.30512e-08
1.28993e-08
1.28542e-08
1.27944e-08
1.29274e-08
1.28272e-08
1.28307e-08
1.27532e-08
1.27079e-08
1.2632e-08
1.25692e-08
1.2497e-08
1.24296e-08
1.23566e-08
1.22864e-08
1.2214e-08
1.212e-08
1.20491e-08
1.19927e-08
1.19024e-08
1.18893e-08
1.18616e-08
1.19479e-08
1.18988e-08
1.19002e-08
1.18659e-08
1.18407e-08
1.1808e-08
1.17812e-08
1.17443e-08
1.1711e-08
1.16478e-08
1.16072e-08
1.15848e-08
1.15145e-08
1.15146e-08
1.14407e-08
1.11847e-08
1.11557e-08
1.12294e-08
1.10267e-08
1.18038e-08
1.22844e-08
1.47407e-08
1.51188e-08
1.61458e-08
1.65915e-08
1.70275e-08
1.73485e-08
1.76069e-08
1.78071e-08
1.79625e-08
1.80899e-08
1.81977e-08
1.82909e-08
1.83721e-08
1.84425e-08
1.85031e-08
1.85582e-08
1.86088e-08
1.86555e-08
1.86985e-08
1.87382e-08
1.87754e-08
1.88106e-08
1.88442e-08
1.88767e-08
1.8908e-08
1.89377e-08
1.89652e-08
1.899e-08
1.90117e-08
1.90302e-08
1.90452e-08
1.90564e-08
1.90637e-08
1.90671e-08
1.90672e-08
1.90644e-08
1.90593e-08
1.90527e-08
1.90446e-08
1.90352e-08
1.90251e-08
1.90145e-08
1.90036e-08
1.89926e-08
1.89815e-08
1.89699e-08
1.89575e-08
1.89439e-08
1.89288e-08
1.8912e-08
1.88932e-08
1.88727e-08
1.88508e-08
1.88282e-08
1.88057e-08
1.87834e-08
1.87606e-08
1.87362e-08
1.87098e-08
1.86823e-08
1.86553e-08
1.86299e-08
1.86052e-08
1.85791e-08
1.85502e-08
1.85202e-08
1.84909e-08
1.84623e-08
1.84319e-08
1.83979e-08
1.83621e-08
1.83263e-08
1.82899e-08
1.82513e-08
1.82104e-08
1.81696e-08
1.81383e-08
1.80879e-08
1.78952e-08
1.77303e-08
1.52862e-08
1.00053e-08
1.00347e-08
1.01217e-08
1.03117e-08
1.06767e-08
1.13576e-08
1.23304e-08
1.37936e-08
1.6118e-08
1.96881e-08
2.47953e-08
3.16457e-08
4.01087e-08
4.93734e-08
5.8547e-08
6.60371e-08
7.01688e-08
7.03635e-08
6.75304e-08
6.31051e-08
5.85285e-08
5.44791e-08
5.0816e-08
4.75412e-08
4.48713e-08
4.30087e-08
4.22584e-08
4.25285e-08
4.31172e-08
4.31024e-08
4.22266e-08
4.12233e-08
4.07954e-08
4.06216e-08
3.99093e-08
3.85636e-08
3.75601e-08
3.77533e-08
3.8913e-08
3.95255e-08
3.85621e-08
3.65487e-08
3.50192e-08
3.47654e-08
3.54045e-08
3.56938e-08
3.49406e-08
3.34106e-08
3.20885e-08
3.14897e-08
3.11485e-08
3.0574e-08
3.01106e-08
3.02713e-08
3.13364e-08
3.26761e-08
3.30972e-08
3.21674e-08
3.08858e-08
3.02841e-08
3.00145e-08
2.9139e-08
2.72394e-08
2.49717e-08
2.36004e-08
2.34205e-08
2.43221e-08
2.60252e-08
2.80601e-08
2.98599e-08
3.09842e-08
3.1406e-08
3.14291e-08
3.14398e-08
3.16362e-08
3.38008e-08
4.05302e-08
4.98953e-08
5.75259e-08
6.06569e-08
5.89045e-08
5.06587e-08
4.04285e-08
2.99984e-08
2.2255e-08
1.83846e-08
1.6557e-08
1.50962e-08
1.38794e-08
1.33579e-08
1.32323e-08
1.34583e-08
1.39631e-08
1.45254e-08
1.49618e-08
1.52175e-08
1.52317e-08
1.49977e-08
1.57603e-08
1.70514e-08
1.70661e-08
1.67847e-08
1.6619e-08
1.6728e-08
1.66259e-08
1.60182e-08
1.50579e-08
1.42251e-08
1.40324e-08
1.40085e-08
1.40466e-08
1.40484e-08
1.39948e-08
1.3903e-08
1.38894e-08
1.37896e-08
1.41989e-08
1.44019e-08
1.41537e-08
1.39727e-08
1.38876e-08
1.41159e-08
1.42808e-08
1.41715e-08
1.40307e-08
1.38879e-08
1.3809e-08
1.38557e-08
1.39038e-08
1.38701e-08
1.3845e-08
1.38458e-08
1.38199e-08
1.38083e-08
1.38127e-08
1.38228e-08
1.38167e-08
1.38012e-08
1.37793e-08
1.37371e-08
1.3678e-08
1.36164e-08
1.35757e-08
1.35209e-08
1.34383e-08
1.33423e-08
1.32775e-08
1.32275e-08
1.31669e-08
1.3078e-08
1.29665e-08
1.28815e-08
1.2817e-08
1.27558e-08
1.26854e-08
1.26011e-08
1.25117e-08
1.24464e-08
1.23891e-08
1.23166e-08
1.22376e-08
1.21707e-08
1.21175e-08
1.20585e-08
1.19849e-08
1.19162e-08
1.18646e-08
1.18186e-08
1.17585e-08
1.1689e-08
1.16301e-08
1.15856e-08
1.15454e-08
1.14984e-08
1.14412e-08
1.13867e-08
1.13445e-08
1.13093e-08
1.12713e-08
1.12315e-08
1.11918e-08
1.11577e-08
1.11292e-08
1.10984e-08
1.10598e-08
1.10241e-08
1.10007e-08
1.09821e-08
1.09619e-08
1.09407e-08
1.09187e-08
1.08996e-08
1.08828e-08
1.0867e-08
1.08531e-08
1.08416e-08
1.08306e-08
1.08194e-08
1.08074e-08
1.07978e-08
1.07926e-08
1.07904e-08
1.07875e-08
1.07822e-08
1.07761e-08
1.07715e-08
1.07693e-08
1.07685e-08
1.07665e-08
1.07626e-08
1.07584e-08
1.07553e-08
1.07522e-08
1.07481e-08
1.07424e-08
1.07364e-08
1.07326e-08
1.07311e-08
1.07301e-08
1.07272e-08
1.07207e-08
1.07128e-08
1.07073e-08
1.07051e-08
1.07041e-08
1.07022e-08
1.06989e-08
1.06939e-08
1.06881e-08
1.06837e-08
1.06823e-08
1.06823e-08
1.06811e-08
1.06774e-08
1.06723e-08
1.06694e-08
1.06702e-08
1.06728e-08
1.06743e-08
1.06742e-08
1.06738e-08
1.0674e-08
1.06747e-08
1.0676e-08
1.06772e-08
1.06778e-08
1.06813e-08
1.06867e-08
1.06885e-08
1.06877e-08
1.06883e-08
1.06911e-08
1.0694e-08
1.06948e-08
1.06956e-08
1.0697e-08
1.06969e-08
1.06954e-08
1.06946e-08
1.06944e-08
1.0693e-08
1.06894e-08
1.06852e-08
1.06824e-08
1.06813e-08
1.068e-08
1.06774e-08
1.06721e-08
1.06639e-08
1.06564e-08
1.06515e-08
1.06486e-08
1.06461e-08
1.06416e-08
1.06351e-08
1.06274e-08
1.062e-08
1.0614e-08
1.06083e-08
1.06011e-08
1.05946e-08
1.05908e-08
1.05853e-08
1.05772e-08
1.05681e-08
1.05597e-08
1.05529e-08
1.05474e-08
1.05421e-08
1.05355e-08
1.05274e-08
1.05183e-08
1.05103e-08
1.05043e-08
1.04986e-08
1.04919e-08
1.04847e-08
1.04772e-08
1.04696e-08
1.04628e-08
1.04564e-08
1.04497e-08
1.04423e-08
1.04348e-08
1.04281e-08
1.04217e-08
1.04146e-08
1.04064e-08
1.03994e-08
1.03933e-08
1.0387e-08
1.03801e-08
1.03725e-08
1.03653e-08
1.03587e-08
1.03523e-08
1.03455e-08
1.03385e-08
1.0332e-08
1.0326e-08
1.032e-08
1.03134e-08
1.03066e-08
1.0301e-08
1.02958e-08
1.02901e-08
1.02837e-08
1.02779e-08
1.02733e-08
1.02689e-08
1.02644e-08
1.02597e-08
1.02549e-08
1.02503e-08
1.02463e-08
1.02428e-08
1.02398e-08
1.02371e-08
1.02344e-08
1.02315e-08
1.02291e-08
1.02272e-08
1.02255e-08
1.02234e-08
1.02207e-08
1.02178e-08
1.02154e-08
1.02134e-08
1.02115e-08
1.02089e-08
1.02061e-08
1.02038e-08
1.02018e-08
1.01996e-08
1.01971e-08
1.01943e-08
1.01921e-08
1.01898e-08
1.01873e-08
1.01846e-08
1.01822e-08
1.01797e-08
1.01771e-08
1.01745e-08
1.01717e-08
1.01689e-08
1.01664e-08
1.01637e-08
1.01611e-08
1.01583e-08
1.01554e-08
1.01524e-08
1.01495e-08
1.01467e-08
1.01438e-08
1.01409e-08
1.0138e-08
1.01351e-08
1.01323e-08
1.01294e-08
1.01264e-08
1.01233e-08
1.01204e-08
1.01176e-08
1.01148e-08
1.01119e-08
1.0109e-08
1.0106e-08
1.01031e-08
1.01004e-08
1.00976e-08
1.00946e-08
1.00917e-08
1.00891e-08
1.00863e-08
1.00835e-08
1.00809e-08
1.00782e-08
1.00757e-08
1.00729e-08
1.00703e-08
1.00677e-08
1.00652e-08
1.00627e-08
1.00604e-08
1.00579e-08
1.00556e-08
1.0053e-08
1.00508e-08
1.00486e-08
1.00464e-08
1.00443e-08
1.00419e-08
1.00399e-08
1.00374e-08
1.00352e-08
1.0034e-08
1.00316e-08
1.00313e-08
1.00296e-08
1.00271e-08
1.00251e-08
1.00347e-08
1.00318e-08
1.00411e-08
1.00505e-08
1.00903e-08
1.00917e-08
1.00566e-08
1.00467e-08
1.00505e-08
1.00448e-08
1.00291e-08
1.0026e-08
1.00194e-08
1.0016e-08
1.00129e-08
1.00107e-08
1.00065e-08
1.0006e-08
1.00179e-08
1.0015e-08
1.00214e-08
1.00269e-08
1.00501e-08
1.00483e-08
1.00266e-08
1.00224e-08
1.00219e-08
1.00191e-08
1.00069e-08
1.00062e-08
1.00029e-08
1.00011e-08
9.99628e-09
9.9986e-09
9.99346e-09
9.9956e-09
9.99986e-09
1.00295e-08
1.00285e-08
1.00723e-08
1.0084e-08
1.0136e-08
1.01582e-08
1.0194e-08
1.0237e-08
1.02244e-08
1.02099e-08
1.02775e-08
1.0222e-08
1.01652e-08
1.01327e-08
1.01093e-08
1.00931e-08
1.00811e-08
1.00715e-08
1.00637e-08
1.00574e-08
1.00524e-08
1.00482e-08
1.00446e-08
1.00415e-08
1.0039e-08
1.00369e-08
1.00351e-08
1.00335e-08
1.0032e-08
1.00307e-08
1.00295e-08
1.00285e-08
1.00276e-08
1.00267e-08
1.00259e-08
1.00251e-08
1.00244e-08
1.00237e-08
1.00231e-08
1.00225e-08
1.00218e-08
1.0021e-08
1.00203e-08
1.00195e-08
1.00189e-08
1.00183e-08
1.00178e-08
1.00173e-08
1.00167e-08
1.00162e-08
1.00157e-08
1.00152e-08
1.00146e-08
1.00142e-08
1.00137e-08
1.00132e-08
1.00127e-08
1.00122e-08
1.00116e-08
1.0011e-08
1.00104e-08
1.00098e-08
1.00093e-08
1.00088e-08
1.00084e-08
1.0008e-08
1.00075e-08
1.00068e-08
1.0006e-08
1.00053e-08
1.0005e-08
1.00049e-08
1.00048e-08
1.00042e-08
1.00034e-08
1.00027e-08
1.00026e-08
1.00027e-08
1.00022e-08
1.00013e-08
1.00008e-08
1.00009e-08
1.00006e-08
9.99951e-09
9.99894e-09
1.00019e-08
1.0012e-08
1.00313e-08
1.00768e-08
1.0089e-08
1.00369e-08
1.00022e-08
1.00148e-08
1.00589e-08
1.01703e-08
1.04024e-08
1.08361e-08
1.16223e-08
1.30892e-08
1.57199e-08
1.99716e-08
2.59227e-08
3.26013e-08
3.88813e-08
4.3843e-08
4.6533e-08
4.67391e-08
4.45429e-08
4.06656e-08
3.62932e-08
3.23461e-08
2.9204e-08
2.67256e-08
2.47074e-08
2.30566e-08
2.18011e-08
2.08933e-08
2.03197e-08
2.00835e-08
2.01211e-08
2.01579e-08
1.99609e-08
1.95388e-08
1.90761e-08
1.86918e-08
1.8301e-08
1.78525e-08
1.74946e-08
1.7448e-08
1.7669e-08
1.77416e-08
1.74357e-08
1.68323e-08
1.62845e-08
1.60923e-08
1.62091e-08
1.627e-08
1.60478e-08
1.55744e-08
1.5106e-08
1.48142e-08
1.46112e-08
1.43917e-08
1.42416e-08
1.43046e-08
1.46035e-08
1.4925e-08
1.5016e-08
1.48418e-08
1.46648e-08
1.46787e-08
1.4757e-08
1.46483e-08
1.43079e-08
1.39415e-08
1.38182e-08
1.39874e-08
1.43077e-08
1.46002e-08
1.47586e-08
1.48283e-08
1.48567e-08
1.48064e-08
1.46929e-08
1.45851e-08
1.45429e-08
1.49983e-08
1.70894e-08
2.20915e-08
2.84497e-08
3.22669e-08
3.32305e-08
3.0882e-08
2.66688e-08
2.20571e-08
1.79498e-08
1.50783e-08
1.32703e-08
1.19447e-08
1.10806e-08
1.06434e-08
1.04678e-08
1.04396e-08
1.05103e-08
1.06172e-08
1.07277e-08
1.0805e-08
1.08151e-08
1.07497e-08
1.06869e-08
1.0697e-08
1.06275e-08
1.0655e-08
1.0754e-08
1.07425e-08
1.07285e-08
1.06596e-08
1.05726e-08
1.04974e-08
1.0457e-08
1.04255e-08
1.03983e-08
1.03836e-08
1.03684e-08
1.03582e-08
1.03555e-08
1.03445e-08
1.03571e-08
1.03695e-08
1.03561e-08
1.03805e-08
1.04086e-08
1.04294e-08
1.04524e-08
1.04275e-08
1.04006e-08
1.03834e-08
1.0369e-08
1.03676e-08
1.0367e-08
1.03559e-08
1.035e-08
1.03496e-08
1.03446e-08
1.03417e-08
1.03416e-08
1.03418e-08
1.03392e-08
1.03363e-08
1.03323e-08
1.03257e-08
1.03178e-08
1.03095e-08
1.03027e-08
1.0294e-08
1.02828e-08
1.02713e-08
1.0263e-08
1.02561e-08
1.02476e-08
1.02364e-08
1.02242e-08
1.02147e-08
1.02074e-08
1.02002e-08
1.0192e-08
1.01833e-08
1.01749e-08
1.01686e-08
1.0163e-08
1.01565e-08
1.01496e-08
1.01438e-08
1.01393e-08
1.01347e-08
1.01292e-08
1.0124e-08
1.01202e-08
1.0117e-08
1.01129e-08
1.01083e-08
1.01045e-08
1.01017e-08
1.00992e-08
1.00964e-08
1.00932e-08
1.00902e-08
1.00878e-08
1.00859e-08
1.00839e-08
1.00819e-08
1.00801e-08
1.00785e-08
1.0077e-08
1.00754e-08
1.00735e-08
1.00718e-08
1.00706e-08
1.00697e-08
1.00688e-08
1.00679e-08
1.00669e-08
1.00659e-08
1.0065e-08
1.0064e-08
1.00632e-08
1.00625e-08
1.00618e-08
1.00611e-08
1.00603e-08
1.00596e-08
1.00591e-08
1.00588e-08
1.00584e-08
1.00579e-08
1.00572e-08
1.00567e-08
1.00563e-08
1.0056e-08
1.00556e-08
1.00551e-08
1.00547e-08
1.00543e-08
1.00539e-08
1.00535e-08
1.00529e-08
1.00524e-08
1.0052e-08
1.00518e-08
1.00516e-08
1.00513e-08
1.00509e-08
1.00503e-08
1.00499e-08
1.00497e-08
1.00495e-08
1.00494e-08
1.00491e-08
1.00488e-08
1.00485e-08
1.00482e-08
1.00481e-08
1.00481e-08
1.0048e-08
1.00478e-08
1.00476e-08
1.00474e-08
1.00474e-08
1.00475e-08
1.00477e-08
1.00478e-08
1.00478e-08
1.00477e-08
1.00477e-08
1.00478e-08
1.00479e-08
1.0048e-08
1.00482e-08
1.00486e-08
1.00488e-08
1.00488e-08
1.00489e-08
1.00491e-08
1.00493e-08
1.00495e-08
1.00497e-08
1.00498e-08
1.00499e-08
1.005e-08
1.00501e-08
1.00503e-08
1.00503e-08
1.00501e-08
1.005e-08
1.005e-08
1.00501e-08
1.00502e-08
1.00502e-08
1.005e-08
1.00496e-08
1.00493e-08
1.00492e-08
1.00493e-08
1.00493e-08
1.00491e-08
1.00488e-08
1.00486e-08
1.00483e-08
1.00481e-08
1.00478e-08
1.00475e-08
1.00473e-08
1.00473e-08
1.0047e-08
1.00466e-08
1.00462e-08
1.00459e-08
1.00456e-08
1.00455e-08
1.00452e-08
1.00449e-08
1.00446e-08
1.00441e-08
1.00438e-08
1.00436e-08
1.00433e-08
1.0043e-08
1.00427e-08
1.00424e-08
1.0042e-08
1.00417e-08
1.00414e-08
1.00411e-08
1.00407e-08
1.00404e-08
1.004e-08
1.00397e-08
1.00394e-08
1.00389e-08
1.00386e-08
1.00383e-08
1.0038e-08
1.00376e-08
1.00372e-08
1.00368e-08
1.00365e-08
1.00361e-08
1.00358e-08
1.00354e-08
1.00351e-08
1.00348e-08
1.00344e-08
1.00341e-08
1.00337e-08
1.00335e-08
1.00332e-08
1.00328e-08
1.00325e-08
1.00322e-08
1.00319e-08
1.00317e-08
1.00314e-08
1.00311e-08
1.00309e-08
1.00306e-08
1.00304e-08
1.00302e-08
1.003e-08
1.00298e-08
1.00296e-08
1.00294e-08
1.00292e-08
1.0029e-08
1.00288e-08
1.00286e-08
1.00285e-08
1.00283e-08
1.00281e-08
1.00279e-08
1.00278e-08
1.00276e-08
1.00274e-08
1.00273e-08
1.00271e-08
1.0027e-08
1.00268e-08
1.00267e-08
1.00266e-08
1.00264e-08
1.00263e-08
1.00261e-08
1.0026e-08
1.00259e-08
1.00258e-08
1.00256e-08
1.00255e-08
1.00254e-08
1.00253e-08
1.00252e-08
1.0025e-08
1.00249e-08
1.00248e-08
1.00247e-08
1.00246e-08
1.00245e-08
1.00243e-08
1.00242e-08
1.00241e-08
1.0024e-08
1.00239e-08
1.00238e-08
1.00237e-08
1.00236e-08
1.00234e-08
1.00233e-08
1.00232e-08
1.00231e-08
1.0023e-08
1.00229e-08
1.00228e-08
1.00227e-08
1.00226e-08
1.00225e-08
1.00224e-08
1.00223e-08
1.00222e-08
1.00221e-08
1.0022e-08
1.00218e-08
1.00217e-08
1.00216e-08
1.00215e-08
1.00214e-08
1.00213e-08
1.00212e-08
1.00211e-08
1.0021e-08
1.00209e-08
1.00207e-08
1.00207e-08
1.00205e-08
1.00204e-08
1.00204e-08
1.00204e-08
1.00203e-08
1.00201e-08
1.00205e-08
1.00203e-08
1.00203e-08
1.00205e-08
1.00208e-08
1.00207e-08
1.00206e-08
1.00204e-08
1.00192e-08
1.00195e-08
1.00208e-08
1.00218e-08
1.00221e-08
1.00214e-08
1.00218e-08
1.00217e-08
1.00208e-08
1.00201e-08
1.00196e-08
1.00194e-08
1.00196e-08
1.00191e-08
1.00194e-08
1.00192e-08
1.00191e-08
1.00188e-08
1.00183e-08
1.00184e-08
1.00192e-08
1.00195e-08
1.00195e-08
1.00192e-08
1.00193e-08
1.00191e-08
1.00189e-08
1.00185e-08
1.00182e-08
1.0018e-08
1.00182e-08
1.00177e-08
1.00179e-08
1.00182e-08
1.00185e-08
1.00188e-08
1.0019e-08
1.00217e-08
1.00228e-08
1.00254e-08
1.00265e-08
1.0027e-08
1.00336e-08
1.00389e-08
1.00393e-08
1.00458e-08
1.00402e-08
1.00301e-08
1.00244e-08
1.00212e-08
1.00191e-08
1.00176e-08
1.00164e-08
1.00155e-08
1.00147e-08
1.00141e-08
1.00135e-08
1.00131e-08
1.00127e-08
1.00124e-08
1.00122e-08
1.00122e-08
1.00123e-08
1.00125e-08
1.00127e-08
1.00128e-08
1.00129e-08
1.0013e-08
1.00131e-08
1.00132e-08
1.00134e-08
1.00135e-08
1.00136e-08
1.00138e-08
1.00139e-08
1.00139e-08
1.00139e-08
1.00139e-08
1.00139e-08
1.00139e-08
1.00139e-08
1.0014e-08
1.00142e-08
1.00143e-08
1.00145e-08
1.00145e-08
1.00145e-08
1.00145e-08
1.00145e-08
1.00144e-08
1.00145e-08
1.00145e-08
1.00145e-08
1.00144e-08
1.00144e-08
1.00143e-08
1.00144e-08
1.00145e-08
1.00145e-08
1.00145e-08
1.00144e-08
1.00142e-08
1.0014e-08
1.00139e-08
1.00137e-08
1.00137e-08
1.00138e-08
1.00139e-08
1.0014e-08
1.00138e-08
1.00135e-08
1.00136e-08
1.00138e-08
1.00139e-08
1.00136e-08
1.00133e-08
1.00133e-08
1.00134e-08
1.00134e-08
1.00132e-08
1.00132e-08
1.00135e-08
1.00139e-08
1.00154e-08
1.00161e-08
1.00166e-08
1.00105e-08
1.00014e-08
1.00081e-08
1.00321e-08
1.0095e-08
1.02303e-08
1.04833e-08
1.09319e-08
1.17496e-08
1.31754e-08
1.54095e-08
1.84285e-08
2.17178e-08
2.46852e-08
2.66105e-08
2.70559e-08
2.61424e-08
2.42684e-08
2.19849e-08
1.98187e-08
1.80469e-08
1.66992e-08
1.5678e-08
1.48967e-08
1.43066e-08
1.38716e-08
1.35473e-08
1.33212e-08
1.31894e-08
1.31678e-08
1.31868e-08
1.3137e-08
1.29993e-08
1.28047e-08
1.26131e-08
1.24517e-08
1.23029e-08
1.21801e-08
1.21273e-08
1.21396e-08
1.21256e-08
1.20382e-08
1.18817e-08
1.17265e-08
1.16525e-08
1.16602e-08
1.16681e-08
1.16077e-08
1.14785e-08
1.13394e-08
1.12335e-08
1.11513e-08
1.1075e-08
1.10248e-08
1.1031e-08
1.10899e-08
1.11539e-08
1.11763e-08
1.11618e-08
1.11645e-08
1.12133e-08
1.12631e-08
1.12571e-08
1.11936e-08
1.11337e-08
1.11423e-08
1.12246e-08
1.13388e-08
1.14416e-08
1.15155e-08
1.15574e-08
1.15691e-08
1.15665e-08
1.1561e-08
1.15526e-08
1.15509e-08
1.16146e-08
1.18571e-08
1.26551e-08
1.43216e-08
1.55558e-08
1.64768e-08
1.69168e-08
1.64519e-08
1.55166e-08
1.43808e-08
1.33699e-08
1.26141e-08
1.20638e-08
1.16723e-08
1.1301e-08
1.09286e-08
1.05812e-08
1.03511e-08
1.02339e-08
1.01854e-08
1.01667e-08
1.01574e-08
1.01494e-08
1.01401e-08
1.01283e-08
1.01159e-08
1.0111e-08
1.01199e-08
1.01256e-08
1.01434e-08
1.01651e-08
1.01719e-08
1.01769e-08
1.01769e-08
1.01625e-08
1.01372e-08
1.01123e-08
1.00933e-08
1.00824e-08
1.00763e-08
1.00717e-08
1.0069e-08
1.00674e-08
1.0066e-08
1.00679e-08
1.00723e-08
1.00765e-08
1.00844e-08
1.00864e-08
1.00843e-08
1.00834e-08
1.00785e-08
1.00743e-08
1.00716e-08
1.00686e-08
1.0067e-08
1.00661e-08
1.00645e-08
1.00636e-08
1.00634e-08
1.00633e-08
1.00629e-08
1.00624e-08
1.00618e-08
1.00608e-08
1.00599e-08
1.00589e-08
1.0058e-08
1.00569e-08
1.00556e-08
1.00544e-08
1.00534e-08
1.00525e-08
1.00516e-08
1.00504e-08
1.00493e-08
1.00483e-08
1.00476e-08
1.00469e-08
1.0046e-08
1.00453e-08
1.00445e-08
1.0044e-08
1.00434e-08
1.00429e-08
1.00423e-08
1.00418e-08
1.00414e-08
1.0041e-08
1.00405e-08
1.00401e-08
1.00398e-08
1.00395e-08
1.00391e-08
1.00388e-08
1.00385e-08
1.00382e-08
1.0038e-08
1.00377e-08
1.00375e-08
1.00373e-08
1.00371e-08
1.00369e-08
1.00367e-08
1.00365e-08
1.00364e-08
1.00362e-08
1.0036e-08
1.00359e-08
1.00357e-08
1.00356e-08
1.00355e-08
1.00353e-08
1.00352e-08
1.00351e-08
1.0035e-08
1.00349e-08
1.00348e-08
1.00347e-08
1.00345e-08
1.00344e-08
1.00343e-08
1.00342e-08
1.00341e-08
1.0034e-08
1.00339e-08
1.00338e-08
1.00337e-08
1.00336e-08
1.00335e-08
1.00334e-08
1.00333e-08
1.00332e-08
1.00331e-08
1.00329e-08
1.00328e-08
1.00327e-08
1.00326e-08
1.00325e-08
1.00324e-08
1.00323e-08
1.00322e-08
1.00321e-08
1.0032e-08
1.00319e-08
1.00318e-08
1.00317e-08
1.00316e-08
1.00314e-08
1.00313e-08
1.00312e-08
1.00312e-08
1.00311e-08
1.0031e-08
1.00309e-08
1.00308e-08
1.00307e-08
1.00306e-08
1.00305e-08
1.00304e-08
1.00303e-08
1.00303e-08
1.00302e-08
1.00301e-08
1.00301e-08
1.003e-08
1.00299e-08
1.00298e-08
1.00297e-08
1.00297e-08
1.00296e-08
1.00295e-08
1.00294e-08
1.00294e-08
1.00293e-08
1.00292e-08
1.00291e-08
1.00291e-08
1.0029e-08
1.0029e-08
1.00289e-08
1.00288e-08
1.00288e-08
1.00287e-08
1.00287e-08
1.00287e-08
1.00286e-08
1.00285e-08
1.00285e-08
1.00284e-08
1.00284e-08
1.00283e-08
1.00283e-08
1.00282e-08
1.00282e-08
1.00281e-08
1.0028e-08
1.0028e-08
1.00279e-08
1.00278e-08
1.00278e-08
1.00277e-08
1.00276e-08
1.00276e-08
1.00275e-08
1.00274e-08
1.00274e-08
1.00273e-08
1.00273e-08
1.00272e-08
1.00271e-08
1.0027e-08
1.0027e-08
1.00269e-08
1.00269e-08
1.00268e-08
1.00267e-08
1.00267e-08
1.00266e-08
1.00265e-08
1.00264e-08
1.00263e-08
1.00263e-08
1.00262e-08
1.00261e-08
1.0026e-08
1.0026e-08
1.00259e-08
1.00258e-08
1.00257e-08
1.00256e-08
1.00256e-08
1.00255e-08
1.00254e-08
1.00253e-08
1.00252e-08
1.00252e-08
1.00251e-08
1.0025e-08
1.00249e-08
1.00248e-08
1.00248e-08
1.00247e-08
1.00246e-08
1.00245e-08
1.00245e-08
1.00244e-08
1.00243e-08
1.00242e-08
1.00242e-08
1.00241e-08
1.0024e-08
1.00239e-08
1.00239e-08
1.00238e-08
1.00238e-08
1.00237e-08
1.00236e-08
1.00236e-08
1.00235e-08
1.00234e-08
1.00233e-08
1.00233e-08
1.00232e-08
1.00232e-08
1.00231e-08
1.0023e-08
1.0023e-08
1.00229e-08
1.00228e-08
1.00228e-08
1.00227e-08
1.00226e-08
1.00225e-08
1.00225e-08
1.00224e-08
1.00223e-08
1.00222e-08
1.00222e-08
1.00221e-08
1.0022e-08
1.0022e-08
1.00219e-08
1.00218e-08
1.00217e-08
1.00216e-08
1.00216e-08
1.00215e-08
1.00214e-08
1.00214e-08
1.00213e-08
1.00212e-08
1.00212e-08
1.00211e-08
1.0021e-08
1.0021e-08
1.00209e-08
1.00208e-08
1.00208e-08
1.00207e-08
1.00207e-08
1.00206e-08
1.00205e-08
1.00205e-08
1.00204e-08
1.00204e-08
1.00203e-08
1.00202e-08
1.00202e-08
1.00201e-08
1.00201e-08
1.002e-08
1.00199e-08
1.00199e-08
1.00198e-08
1.00197e-08
1.00197e-08
1.00196e-08
1.00196e-08
1.00195e-08
1.00195e-08
1.00194e-08
1.00193e-08
1.00193e-08
1.00192e-08
1.00191e-08
1.00191e-08
1.0019e-08
1.00189e-08
1.00189e-08
1.00188e-08
1.00187e-08
1.00186e-08
1.00187e-08
1.00186e-08
1.00186e-08
1.00184e-08
1.00188e-08
1.00187e-08
1.00188e-08
1.0019e-08
1.0019e-08
1.00189e-08
1.00189e-08
1.00186e-08
1.00178e-08
1.00178e-08
1.00186e-08
1.00186e-08
1.00186e-08
1.00186e-08
1.00187e-08
1.00186e-08
1.0018e-08
1.00176e-08
1.00182e-08
1.00182e-08
1.00181e-08
1.0018e-08
1.00179e-08
1.00179e-08
1.00177e-08
1.00176e-08
1.00173e-08
1.00173e-08
1.00175e-08
1.00175e-08
1.00175e-08
1.00174e-08
1.00174e-08
1.00173e-08
1.00172e-08
1.00171e-08
1.00168e-08
1.00168e-08
1.00172e-08
1.00169e-08
1.00178e-08
1.00166e-08
1.0016e-08
1.0017e-08
1.00172e-08
1.00199e-08
1.00208e-08
1.00234e-08
1.00223e-08
1.00199e-08
1.00202e-08
1.00201e-08
1.00197e-08
1.00198e-08
1.00194e-08
1.00189e-08
1.00187e-08
1.00179e-08
1.00171e-08
1.00165e-08
1.0016e-08
1.00155e-08
1.0015e-08
1.00146e-08
1.00142e-08
1.00139e-08
1.00136e-08
1.00133e-08
1.00131e-08
1.00128e-08
1.00127e-08
1.00126e-08
1.00126e-08
1.00127e-08
1.00127e-08
1.00127e-08
1.00127e-08
1.00127e-08
1.00127e-08
1.00128e-08
1.00128e-08
1.00129e-08
1.00131e-08
1.00132e-08
1.00133e-08
1.00133e-08
1.00133e-08
1.00133e-08
1.00132e-08
1.00131e-08
1.00131e-08
1.00131e-08
1.00132e-08
1.00133e-08
1.00134e-08
1.00135e-08
1.00136e-08
1.00136e-08
1.00136e-08
1.00135e-08
1.00136e-08
1.00136e-08
1.00136e-08
1.00136e-08
1.00135e-08
1.00134e-08
1.00134e-08
1.00135e-08
1.00136e-08
1.00136e-08
1.00136e-08
1.00134e-08
1.00132e-08
1.0013e-08
1.00129e-08
1.00129e-08
1.00129e-08
1.0013e-08
1.00131e-08
1.0013e-08
1.00128e-08
1.00128e-08
1.0013e-08
1.00131e-08
1.0013e-08
1.00126e-08
1.00126e-08
1.00126e-08
1.00126e-08
1.00125e-08
1.00125e-08
1.00125e-08
1.00129e-08
1.00132e-08
1.00141e-08
1.00147e-08
1.00152e-08
1.00098e-08
1.00009e-08
1.0005e-08
1.00185e-08
1.00515e-08
1.01146e-08
1.02155e-08
1.03667e-08
1.06087e-08
1.10059e-08
1.16272e-08
1.24978e-08
1.34991e-08
1.44587e-08
1.51856e-08
1.54178e-08
1.51637e-08
1.45795e-08
1.38675e-08
1.31963e-08
1.26448e-08
1.22165e-08
1.18891e-08
1.16401e-08
1.14533e-08
1.13141e-08
1.12067e-08
1.11243e-08
1.10745e-08
1.10582e-08
1.10519e-08
1.1029e-08
1.09875e-08
1.09223e-08
1.08545e-08
1.07961e-08
1.07448e-08
1.07026e-08
1.06759e-08
1.06639e-08
1.06512e-08
1.06247e-08
1.05844e-08
1.05444e-08
1.05194e-08
1.05111e-08
1.05059e-08
1.04893e-08
1.04582e-08
1.04205e-08
1.0385e-08
1.03542e-08
1.03281e-08
1.03106e-08
1.0307e-08
1.03148e-08
1.03243e-08
1.03291e-08
1.03331e-08
1.0346e-08
1.03694e-08
1.03898e-08
1.03949e-08
1.03872e-08
1.03822e-08
1.03928e-08
1.04181e-08
1.04524e-08
1.04935e-08
1.05381e-08
1.0576e-08
1.05965e-08
1.06006e-08
1.05993e-08
1.06049e-08
1.06255e-08
1.06596e-08
1.07086e-08
1.08001e-08
1.09806e-08
1.11663e-08
1.13929e-08
1.16669e-08
1.17272e-08
1.17333e-08
1.16996e-08
1.15936e-08
1.14785e-08
1.13686e-08
1.12671e-08
1.11575e-08
1.10461e-08
1.09439e-08
1.08022e-08
1.06327e-08
1.04452e-08
1.02924e-08
1.01937e-08
1.01394e-08
1.01082e-08
1.00886e-08
1.00763e-08
1.00691e-08
1.00662e-08
1.00666e-08
1.00709e-08
1.00793e-08
1.00898e-08
1.0103e-08
1.0121e-08
1.0136e-08
1.01427e-08
1.01387e-08
1.01232e-08
1.01001e-08
1.008e-08
1.00658e-08
1.00568e-08
1.00511e-08
1.00474e-08
1.00453e-08
1.00447e-08
1.00452e-08
1.00465e-08
1.00477e-08
1.00488e-08
1.00503e-08
1.00513e-08
1.00519e-08
1.00518e-08
1.00497e-08
1.0047e-08
1.00449e-08
1.00432e-08
1.0042e-08
1.00413e-08
1.00409e-08
1.00404e-08
1.00399e-08
1.00396e-08
1.00393e-08
1.00391e-08
1.00389e-08
1.00387e-08
1.00385e-08
1.00383e-08
1.00381e-08
1.00379e-08
1.00377e-08
1.00376e-08
1.00374e-08
1.00373e-08
1.00372e-08
1.00371e-08
1.0037e-08
1.00369e-08
1.00368e-08
1.00367e-08
1.00366e-08
1.00366e-08
1.00365e-08
1.00364e-08
1.00363e-08
1.00362e-08
1.00361e-08
1.0036e-08
1.00359e-08
1.00358e-08
1.00357e-08
1.00356e-08
1.00355e-08
1.00354e-08
1.00353e-08
1.00352e-08
1.00352e-08
1.00351e-08
1.0035e-08
1.00349e-08
1.00348e-08
1.00348e-08
1.00347e-08
1.00346e-08
1.00346e-08
1.00345e-08
1.00344e-08
1.00344e-08
1.00343e-08
1.00343e-08
1.00342e-08
1.00341e-08
1.00341e-08
1.0034e-08
1.0034e-08
1.00339e-08
1.00338e-08
1.00338e-08
1.00337e-08
1.00336e-08
1.00335e-08
1.00335e-08
1.00334e-08
1.00333e-08
1.00332e-08
1.00331e-08
1.0033e-08
1.00329e-08
1.00328e-08
1.00327e-08
1.00326e-08
1.00325e-08
1.00324e-08
1.00322e-08
1.00321e-08
1.0032e-08
1.00319e-08
1.00318e-08
1.00317e-08
1.00316e-08
1.00315e-08
1.00314e-08
1.00313e-08
1.00312e-08
1.00311e-08
1.0031e-08
1.00309e-08
1.00308e-08
1.00307e-08
1.00306e-08
1.00305e-08
1.00305e-08
1.00304e-08
1.00303e-08
1.00302e-08
1.00301e-08
1.00301e-08
1.003e-08
1.00299e-08
1.00298e-08
1.00298e-08
1.00297e-08
1.00296e-08
1.00296e-08
1.00295e-08
1.00294e-08
1.00293e-08
1.00293e-08
1.00292e-08
1.00291e-08
1.0029e-08
1.00289e-08
1.00288e-08
1.00287e-08