/*--------------------------------*- C++ -*----------------------------------*\
| =========                 |                                                 |
| \\      /  F ield         | OpenFOAM: The Open Source CFD Toolbox           |
|  \\    /   O peration     | Version:  v2006                                 |
|   \\  /    A nd           | Website:  www.openfoam.com                      |
|    \\/     M anipulation  |                                                 |
\*---------------------------------------------------------------------------*/
FoamFile
{
    version     2.0;
    format      ascii;
    class       volScalarField;
    location    "4.7";
    object      nut;
}
// * * * * * * * * * * * * * * * * * * * * * * * * * * * * * * * * * * * * * //

dimensions      [0 2 -1 0 0 0 0];


internalField   nonuniform List<scalar> 
33000
(
2.67415e-10
2.78288e-10
2.90202e-10
3.03914e-10
3.24534e-10
3.54349e-10
3.91747e-10
4.07994e-10
3.97809e-10
3.95882e-10
4.07576e-10
4.41907e-10
5.25709e-10
6.97723e-10
1.00223e-09
1.43483e-09
1.91468e-09
2.33565e-09
2.62944e-09
2.82128e-09
2.95727e-09
3.07367e-09
3.16437e-09
3.22725e-09
3.27027e-09
3.29036e-09
3.30145e-09
3.31614e-09
3.36255e-09
3.43109e-09
3.47339e-09
3.48759e-09
3.48781e-09
3.52397e-09
3.58205e-09
3.61686e-09
3.61699e-09
3.60159e-09
3.59807e-09
3.65059e-09
3.70847e-09
3.72519e-09
3.7029e-09
3.67649e-09
3.675e-09
3.70713e-09
3.74123e-09
3.74779e-09
3.72769e-09
3.70707e-09
3.7189e-09
3.73426e-09
3.73433e-09
3.72262e-09
3.70806e-09
3.71961e-09
3.76259e-09
3.79489e-09
3.76722e-09
3.70624e-09
3.66802e-09
3.63239e-09
3.57731e-09
3.47117e-09
3.3161e-09
3.16336e-09
3.0323e-09
2.90475e-09
2.76982e-09
2.62555e-09
2.46673e-09
2.31007e-09
2.18428e-09
2.08523e-09
2.03555e-09
1.99252e-09
1.90093e-09
1.96499e-09
2.77781e-09
3.68931e-09
4.57512e-09
5.36157e-09
5.12393e-09
6.14161e-09
6.1473e-09
6.3689e-09
6.66747e-09
6.81749e-09
6.49472e-09
6.25774e-09
6.16183e-09
5.87634e-09
5.62351e-09
5.35031e-09
5.00839e-09
4.62939e-09
4.30256e-09
3.96242e-09
3.78751e-09
4.3189e-09
5.301e-09
5.84067e-09
5.98692e-09
5.74101e-09
5.97953e-09
6.08753e-09
6.19441e-09
6.25295e-09
6.23912e-09
6.07472e-09
5.90173e-09
5.83221e-09
5.75513e-09
5.65391e-09
5.51598e-09
5.35199e-09
5.19947e-09
5.85944e-09
6.61135e-09
6.78964e-09
6.8158e-09
6.70331e-09
7.09019e-09
7.25896e-09
7.40351e-09
7.48779e-09
7.45786e-09
7.49766e-09
7.63601e-09
7.76076e-09
7.89469e-09
8.05007e-09
8.22069e-09
8.41565e-09
8.63064e-09
8.88038e-09
9.1572e-09
9.46809e-09
9.82108e-09
1.02258e-08
1.06839e-08
1.1187e-08
1.1763e-08
1.24459e-08
1.32446e-08
1.41468e-08
1.51848e-08
1.64365e-08
1.79748e-08
1.98829e-08
2.2175e-08
2.49155e-08
2.83885e-08
3.28787e-08
3.87018e-08
4.6069e-08
5.44142e-08
6.12303e-08
6.36267e-08
6.07366e-08
5.43424e-08
4.72913e-08
4.10262e-08
3.59832e-08
3.2066e-08
2.89109e-08
2.62551e-08
2.40247e-08
2.22095e-08
2.07237e-08
1.9454e-08
1.83417e-08
1.73667e-08
1.65136e-08
1.57829e-08
1.51494e-08
1.45788e-08
1.40632e-08
1.3602e-08
1.31887e-08
1.28209e-08
1.24914e-08
1.21875e-08
1.19066e-08
1.16591e-08
1.1443e-08
1.12411e-08
1.10533e-08
1.08836e-08
1.07286e-08
1.05884e-08
1.04616e-08
1.03463e-08
1.02415e-08
1.01457e-08
1.00583e-08
9.97979e-09
9.9077e-09
9.84237e-09
9.78628e-09
9.73948e-09
9.69915e-09
9.66308e-09
9.63134e-09
9.60431e-09
9.58505e-09
9.57393e-09
9.56853e-09
9.56765e-09
9.5693e-09
9.57573e-09
9.59054e-09
9.61248e-09
9.63425e-09
9.65494e-09
9.68104e-09
9.71497e-09
9.75484e-09
9.80081e-09
9.8472e-09
9.88954e-09
9.9324e-09
9.9807e-09
1.00364e-08
1.00996e-08
1.0166e-08
1.02294e-08
1.02945e-08
1.03676e-08
1.04449e-08
1.05287e-08
1.06247e-08
1.07245e-08
1.08194e-08
1.09221e-08
1.10355e-08
1.1155e-08
1.12856e-08
1.1424e-08
1.15619e-08
1.17065e-08
1.18661e-08
1.20368e-08
1.22079e-08
1.23837e-08
1.25748e-08
1.27886e-08
1.30198e-08
1.32442e-08
1.34752e-08
1.37346e-08
1.40218e-08
1.43209e-08
1.46308e-08
1.49741e-08
1.53397e-08
1.57191e-08
1.61434e-08
1.65989e-08
1.70936e-08
1.76386e-08
1.82116e-08
1.88329e-08
1.95284e-08
2.03093e-08
2.11892e-08
2.21477e-08
2.31854e-08
2.43186e-08
2.56142e-08
2.71413e-08
2.89183e-08
3.09894e-08
3.33417e-08
3.6025e-08
3.92403e-08
4.31561e-08
4.79436e-08
5.24415e-08
5.22289e-08
5.2034e-08
5.18606e-08
5.1701e-08
5.15508e-08
5.1416e-08
5.12959e-08
5.11816e-08
5.10585e-08
5.09239e-08
5.07741e-08
5.06073e-08
5.04277e-08
5.02366e-08
5.0014e-08
4.53761e-08
4.15909e-08
3.83794e-08
3.56072e-08
3.32283e-08
3.11413e-08
2.9316e-08
2.77234e-08
2.62989e-08
2.50201e-08
2.38598e-08
2.28143e-08
2.18739e-08
2.10138e-08
2.02241e-08
1.95003e-08
1.8842e-08
1.82411e-08
1.76899e-08
1.71768e-08
1.6699e-08
1.62611e-08
1.58586e-08
1.54845e-08
1.51354e-08
1.48104e-08
1.45108e-08
1.42336e-08
1.39739e-08
1.373e-08
1.35035e-08
1.32946e-08
1.31e-08
1.29164e-08
1.27442e-08
1.25846e-08
1.24366e-08
1.22992e-08
1.2171e-08
1.20503e-08
1.19371e-08
1.18317e-08
1.17337e-08
1.1643e-08
1.1559e-08
1.14806e-08
1.14071e-08
1.1339e-08
1.12764e-08
1.12198e-08
1.11681e-08
1.11199e-08
1.10749e-08
1.1034e-08
1.09979e-08
1.0966e-08
1.0937e-08
1.09102e-08
1.08869e-08
1.08675e-08
1.08515e-08
1.08374e-08
1.08255e-08
1.08171e-08
1.08118e-08
1.08083e-08
1.08067e-08
1.08078e-08
1.08112e-08
1.0817e-08
1.0825e-08
1.08347e-08
1.08463e-08
1.08602e-08
1.08761e-08
1.08943e-08
1.09144e-08
1.09357e-08
1.09584e-08
1.09832e-08
1.10101e-08
1.10383e-08
1.10682e-08
1.10999e-08
1.11337e-08
1.11693e-08
1.12065e-08
1.12445e-08
1.1284e-08
1.13253e-08
1.13685e-08
1.14135e-08
1.14602e-08
1.15084e-08
1.15572e-08
1.16073e-08
1.16608e-08
1.17159e-08
1.17705e-08
1.1827e-08
1.18875e-08
1.19482e-08
1.20102e-08
1.20753e-08
1.21421e-08
1.22107e-08
1.22797e-08
1.23514e-08
1.24229e-08
1.2499e-08
1.25747e-08
1.26552e-08
1.2736e-08
1.28191e-08
1.2901e-08
1.29856e-08
1.3073e-08
1.31609e-08
1.32535e-08
1.33467e-08
1.34448e-08
1.35399e-08
1.36425e-08
1.37299e-08
1.38405e-08
1.3955e-08
1.4076e-08
1.42237e-08
1.4354e-08
1.43863e-08
1.45137e-08
1.46073e-08
1.48303e-08
1.49971e-08
1.52383e-08
1.53173e-08
1.56361e-08
1.60023e-08
1.60067e-08
1.59101e-08
1.58538e-08
1.57593e-08
1.5681e-08
1.55912e-08
1.55072e-08
1.54163e-08
1.5329e-08
1.52388e-08
1.51216e-08
1.50334e-08
1.49632e-08
1.48506e-08
1.48344e-08
1.47999e-08
1.49073e-08
1.48462e-08
1.48479e-08
1.48053e-08
1.47738e-08
1.47331e-08
1.46997e-08
1.46537e-08
1.46123e-08
1.45335e-08
1.4483e-08
1.44552e-08
1.43676e-08
1.43676e-08
1.42757e-08
1.39567e-08
1.39206e-08
1.40123e-08
1.37599e-08
1.47278e-08
1.53264e-08
1.8384e-08
1.88544e-08
2.0132e-08
2.06863e-08
2.12285e-08
2.16275e-08
2.19488e-08
2.21978e-08
2.23909e-08
2.25492e-08
2.26833e-08
2.27991e-08
2.29e-08
2.29875e-08
2.30629e-08
2.31314e-08
2.31943e-08
2.32523e-08
2.33057e-08
2.33551e-08
2.34013e-08
2.3445e-08
2.34868e-08
2.35271e-08
2.35661e-08
2.3603e-08
2.36371e-08
2.36679e-08
2.3695e-08
2.3718e-08
2.37365e-08
2.37504e-08
2.37595e-08
2.37638e-08
2.37639e-08
2.37604e-08
2.37541e-08
2.37459e-08
2.37358e-08
2.37242e-08
2.37116e-08
2.36984e-08
2.36849e-08
2.36712e-08
2.36574e-08
2.3643e-08
2.36276e-08
2.36107e-08
2.3592e-08
2.35711e-08
2.35478e-08
2.35223e-08
2.3495e-08
2.3467e-08
2.3439e-08
2.34113e-08
2.33829e-08
2.33526e-08
2.33198e-08
2.32856e-08
2.32521e-08
2.32205e-08
2.31899e-08
2.31573e-08
2.31215e-08
2.30842e-08
2.30478e-08
2.30123e-08
2.29744e-08
2.29322e-08
2.28877e-08
2.28432e-08
2.27979e-08
2.27499e-08
2.26991e-08
2.26485e-08
2.26096e-08
2.21779e-08
2.23074e-08
2.00067e-08
1.70185e-08
7.10873e-09
1.60398e-08
1.75079e-08
1.14338e-08
1.06456e-08
3.78318e-09
1.86101e-09
1.87819e-09
2.85825e-09
5.15173e-09
9.89607e-09
1.58318e-08
2.05877e-08
2.12498e-08
2.41855e-08
2.93394e-08
3.21896e-08
3.48662e-08
4.05226e-08
4.53327e-08
4.91135e-08
4.99306e-08
5.06461e-08
5.20701e-08
4.86772e-08
5.12529e-08
7.37596e-08
8.63641e-08
8.79828e-08
5.84384e-08
4.14316e-08
5.14979e-08
7.55715e-08
8.59273e-08
8.04304e-08
5.74757e-08
8.54105e-08
8.94333e-08
4.83181e-08
5.80293e-08
5.27751e-08
4.9159e-08
9.45448e-08
6.50677e-08
4.21069e-08
3.84828e-08
3.62664e-08
4.31124e-08
6.67019e-08
5.10243e-08
4.08022e-08
4.76714e-08
5.79865e-08
4.83647e-08
3.22139e-08
3.00498e-08
3.58578e-08
3.81574e-08
3.85779e-08
2.66216e-08
2.17003e-08
2.27952e-08
2.54285e-08
3.14243e-08
3.66717e-08
2.94566e-08
2.49647e-08
2.57237e-08
2.91867e-08
3.10952e-08
3.17156e-08
3.24965e-08
3.23109e-08
3.26046e-08
3.17945e-08
3.31969e-08
3.90453e-08
3.06703e-08
3.09171e-08
2.93757e-08
1.36342e-08
1.4988e-08
1.61277e-08
9.84777e-09
8.58931e-09
3.93551e-09
8.41789e-09
2.15558e-08
1.01627e-08
4.10231e-08
2.31279e-08
6.05341e-08
3.3186e-08
3.7818e-08
6.31082e-08
3.7938e-08
4.55703e-08
2.7493e-08
9.5096e-09
1.0524e-08
1.94061e-08
7.58858e-09
3.94364e-09
5.84796e-09
7.02466e-09
1.10793e-08
1.04957e-08
1.79545e-08
2.57637e-08
2.00099e-08
5.11816e-08
8.83047e-08
4.63803e-08
2.51899e-08
2.35874e-08
1.35914e-08
1.31508e-08
1.20464e-08
1.26469e-08
5.90652e-09
5.11518e-09
9.01499e-09
1.12881e-08
1.89373e-08
1.85024e-08
6.5601e-08
1.42913e-07
4.55405e-08
3.1713e-08
3.08181e-08
2.83879e-08
2.7447e-08
2.5636e-08
2.28828e-08
2.10344e-08
1.96605e-08
1.89086e-08
1.79212e-08
1.71267e-08
1.63462e-08
1.55702e-08
1.48487e-08
1.43163e-08
1.39327e-08
1.35399e-08
1.30546e-08
1.26489e-08
1.23729e-08
1.22573e-08
1.21828e-08
1.2021e-08
1.18811e-08
1.18185e-08
1.18995e-08
1.21482e-08
1.23125e-08
1.24293e-08
1.26247e-08
1.29286e-08
1.33163e-08
1.37318e-08
1.41196e-08
1.44878e-08
1.49297e-08
1.54728e-08
1.59778e-08
1.63872e-08
1.68902e-08
1.75147e-08
1.82134e-08
1.88444e-08
1.94209e-08
2.01362e-08
2.09433e-08
2.18281e-08
2.27938e-08
2.37365e-08
2.47573e-08
2.60395e-08
2.72643e-08
2.84255e-08
2.97764e-08
3.144e-08
3.34487e-08
3.5729e-08
3.8067e-08
4.06195e-08
4.33996e-08
4.61714e-08
4.92927e-08
5.33358e-08
5.82034e-08
6.45809e-08
7.22823e-08
8.06504e-08
8.95947e-08
9.92252e-08
1.12525e-07
1.338e-07
1.65611e-07
2.06244e-07
2.5385e-07
2.95552e-07
2.97468e-07
2.99883e-07
3.0202e-07
3.03356e-07
3.04121e-07
2.50472e-07
1.99304e-07
1.69417e-07
1.52813e-07
1.41653e-07
1.2814e-07
1.14113e-07
1.03337e-07
9.57555e-08
9.0091e-08
8.57842e-08
8.26118e-08
7.90897e-08
7.47715e-08
7.00886e-08
6.71002e-08
6.51171e-08
6.31496e-08
6.12449e-08
5.93417e-08
5.74516e-08
5.56402e-08
5.4046e-08
5.26347e-08
5.16946e-08
5.09154e-08
4.96567e-08
4.83172e-08
4.6958e-08
4.59508e-08
4.53987e-08
4.50408e-08
4.46888e-08
4.39606e-08
4.2958e-08
4.20999e-08
4.13448e-08
4.0849e-08
4.02434e-08
3.97432e-08
3.95305e-08
3.9128e-08
3.81826e-08
3.74749e-08
3.72591e-08
3.70338e-08
3.64678e-08
3.57698e-08
3.51543e-08
3.47759e-08
3.45075e-08
3.4401e-08
3.41974e-08
3.34696e-08
3.27788e-08
3.24563e-08
3.22065e-08
3.21442e-08
3.2088e-08
3.18762e-08
3.15945e-08
3.11759e-08
3.09337e-08
3.09298e-08
3.09571e-08
3.09305e-08
3.0938e-08
3.09991e-08
3.1147e-08
3.12614e-08
3.13122e-08
3.1434e-08
3.16638e-08
3.20835e-08
3.26409e-08
3.30419e-08
3.3335e-08
3.37365e-08
3.4325e-08
3.50044e-08
3.5618e-08
3.62956e-08
3.70018e-08
3.76885e-08
3.84755e-08
3.9314e-08
4.01651e-08
4.10723e-08
4.19526e-08
4.3051e-08
4.43366e-08
4.53988e-08
4.63915e-08
4.75881e-08
4.90704e-08
5.07731e-08
5.22163e-08
5.36239e-08
5.53968e-08
5.7414e-08
5.94264e-08
6.15698e-08
6.38662e-08
6.63604e-08
6.93067e-08
7.22878e-08
7.52927e-08
7.86983e-08
8.26499e-08
8.71178e-08
9.19043e-08
9.70061e-08
1.02643e-07
1.09109e-07
1.1655e-07
1.2517e-07
1.34948e-07
1.45788e-07
1.58297e-07
1.73102e-07
1.91138e-07
2.13237e-07
2.39968e-07
2.72967e-07
3.15895e-07
3.71843e-07
4.03951e-07
4.06221e-07
4.08194e-07
4.10077e-07
4.12213e-07
4.1458e-07
4.16355e-07
4.17514e-07
4.18668e-07
4.20112e-07
4.2212e-07
3.72764e-07
3.31456e-07
2.99472e-07
2.74872e-07
2.54856e-07
2.37958e-07
2.23397e-07
2.11282e-07
2.01086e-07
1.92054e-07
1.84208e-07
1.77527e-07
1.71758e-07
1.66509e-07
1.6154e-07
1.57018e-07
1.5359e-07
1.50684e-07
1.4769e-07
1.44961e-07
1.42552e-07
1.40438e-07
1.38711e-07
1.37125e-07
1.356e-07
1.34352e-07
1.33329e-07
1.32475e-07
1.31577e-07
1.30785e-07
1.30169e-07
1.29736e-07
1.29548e-07
1.29324e-07
1.2903e-07
1.2887e-07
1.28964e-07
1.29151e-07
1.29247e-07
1.29321e-07
1.2975e-07
1.30205e-07
1.30558e-07
1.31038e-07
1.31607e-07
1.32262e-07
1.3284e-07
1.33426e-07
1.3392e-07
1.34841e-07
1.35663e-07
1.36583e-07
1.37395e-07
1.38173e-07
1.39046e-07
1.40221e-07
1.41243e-07
1.42514e-07
1.43652e-07
1.4515e-07
1.4612e-07
1.47761e-07
1.49347e-07
1.51285e-07
1.53788e-07
1.55271e-07
1.57517e-07
1.57434e-07
1.59554e-07
1.59942e-07
1.62358e-07
1.68303e-07
1.7115e-07
1.63978e-07
1.67744e-07
1.54905e-07
1.58489e-07
2.11618e-07
2.20162e-07
2.08615e-07
1.87819e-07
2.31731e-07
2.20852e-07
1.67317e-07
1.71312e-07
1.79783e-07
1.9539e-07
1.89338e-07
1.86596e-07
1.86742e-07
1.80275e-07
1.84394e-07
1.88804e-07
2.09431e-07
2.12519e-07
1.80186e-07
1.81153e-07
1.48957e-07
1.37069e-07
1.09606e-07
1.13722e-07
1.39095e-07
1.62904e-07
1.79846e-07
1.67124e-07
1.71502e-07
1.77894e-07
1.67707e-07
1.84446e-07
2.01131e-07
2.25626e-07
2.32092e-07
2.12109e-07
2.36437e-07
1.32778e-07
1.52973e-07
1.92479e-07
2.41738e-07
1.2985e-07
1.28243e-07
5.10095e-08
5.17051e-08
1.81737e-07
1.47327e-07
9.41764e-08
9.86617e-08
1.89153e-07
2.60153e-07
2.80038e-07
2.93219e-07
2.78555e-07
2.62334e-07
2.4705e-07
2.34285e-07
2.24306e-07
2.16799e-07
2.11024e-07
2.06309e-07
2.02633e-07
1.99992e-07
1.98201e-07
1.96882e-07
1.95753e-07
1.94679e-07
1.93571e-07
1.92381e-07
1.91508e-07
1.91036e-07
1.9073e-07
1.9035e-07
1.90965e-07
1.91849e-07
1.92356e-07
1.92957e-07
1.94011e-07
1.95278e-07
1.96466e-07
1.97475e-07
1.98433e-07
1.99686e-07
2.01352e-07
2.02933e-07
2.03092e-07
2.03528e-07
2.0401e-07
2.04208e-07
2.04256e-07
2.04384e-07
2.04778e-07
2.0549e-07
2.06419e-07
2.07436e-07
2.08523e-07
2.09788e-07
2.11247e-07
2.12694e-07
2.1374e-07
2.13991e-07
2.1372e-07
2.13748e-07
2.14568e-07
2.15563e-07
2.15781e-07
2.14731e-07
2.12845e-07
2.13108e-07
2.16358e-07
2.1829e-07
2.17239e-07
2.14945e-07
2.15174e-07
2.18878e-07
2.21521e-07
2.19832e-07
2.18173e-07
2.20089e-07
2.22569e-07
2.21268e-07
2.22074e-07
2.05485e-07
1.77037e-07
2.95131e-07
1.3316e-07
7.87061e-08
1.26705e-07
7.02585e-09
1.70529e-08
1.78486e-08
1.07731e-08
6.68772e-09
2.43194e-09
2.18124e-09
3.78347e-09
8.56506e-09
2.46684e-08
4.54391e-08
5.19063e-08
5.40984e-08
5.7175e-08
6.06688e-08
6.40069e-08
6.67278e-08
6.87831e-08
6.42601e-08
6.17292e-08
5.85296e-08
5.17754e-08
4.72472e-08
4.66824e-08
3.92608e-08
3.21361e-08
4.03181e-08
8.50481e-08
8.62207e-08
7.41479e-08
3.06007e-08
2.38416e-08
4.0314e-08
9.23438e-08
8.81663e-08
3.39142e-08
2.85711e-08
3.30805e-08
3.03372e-08
4.83129e-08
4.99608e-08
2.16785e-08
2.46854e-08
2.5615e-08
1.85729e-08
2.06228e-08
1.88334e-08
1.46596e-08
1.63299e-08
1.84823e-08
2.00917e-08
1.84725e-08
2.10353e-08
1.87734e-08
1.55415e-08
2.17211e-08
3.06022e-08
2.19373e-08
1.45435e-08
1.06386e-08
1.12729e-08
1.38938e-08
1.38371e-08
1.4397e-08
1.33318e-08
1.32246e-08
1.66042e-08
1.93598e-08
1.71509e-08
1.43224e-08
1.40762e-08
1.5007e-08
1.73639e-08
2.05892e-08
2.62467e-08
4.32488e-08
4.09932e-08
2.80173e-08
3.90934e-08
4.55057e-08
4.37011e-08
3.99449e-08
3.67636e-08
1.2567e-08
8.65964e-09
7.00107e-09
4.30081e-09
3.35649e-09
2.75091e-09
2.3774e-09
8.70204e-09
7.35951e-09
2.40324e-08
1.98753e-08
2.10481e-08
1.33144e-08
1.75042e-08
4.13401e-08
2.29981e-08
6.33298e-09
7.28918e-09
6.41156e-09
8.44846e-09
3.34638e-08
4.06111e-09
2.42461e-09
3.37793e-09
4.51548e-09
5.36499e-09
6.67797e-09
6.20879e-09
1.12908e-08
1.48532e-08
3.89953e-08
3.91217e-08
2.1203e-08
1.64108e-08
2.04847e-08
1.54707e-08
1.21305e-08
7.91613e-09
8.60363e-09
4.35038e-09
3.85469e-09
6.43583e-09
7.25365e-09
1.19626e-08
1.2625e-08
3.57075e-08
5.10102e-08
2.13169e-08
1.73047e-08
1.74265e-08
1.6487e-08
1.55748e-08
1.48315e-08
1.39802e-08
1.32218e-08
1.2634e-08
1.23514e-08
1.17708e-08
1.12619e-08
1.09025e-08
1.06729e-08
1.03927e-08
1.0104e-08
9.86842e-09
9.7664e-09
9.74819e-09
9.71117e-09
9.56419e-09
9.48921e-09
9.54123e-09
9.67742e-09
9.88572e-09
1.00326e-08
1.01473e-08
1.03395e-08
1.05984e-08
1.08629e-08
1.11963e-08
1.16134e-08
1.2033e-08
1.24307e-08
1.2865e-08
1.33289e-08
1.3809e-08
1.43553e-08
1.48568e-08
1.54575e-08
1.61696e-08
1.68104e-08
1.74849e-08
1.82183e-08
1.89329e-08
1.98351e-08
2.09468e-08
2.20119e-08
2.30422e-08
2.40906e-08
2.51804e-08
2.66071e-08
2.83651e-08
3.02106e-08
3.20312e-08
3.40672e-08
3.66083e-08
3.92388e-08
4.18112e-08
4.48443e-08
4.83918e-08
5.25888e-08
5.80834e-08
6.49235e-08
7.26457e-08
8.16671e-08
9.09042e-08
1.00527e-07
1.13875e-07
1.36787e-07
1.71797e-07
2.13265e-07
2.45145e-07
2.72123e-07
2.95698e-07
3.12152e-07
2.94223e-07
2.41257e-07
1.9488e-07
1.65223e-07
1.50481e-07
1.40911e-07
1.28078e-07
1.12556e-07
1.01825e-07
9.44432e-08
8.87982e-08
8.40963e-08
8.01273e-08
7.591e-08
7.17848e-08
6.81128e-08
6.52347e-08
6.3581e-08
6.17697e-08
5.88836e-08
5.61621e-08
5.45119e-08
5.35726e-08
5.25714e-08
5.14037e-08
4.98177e-08
4.8076e-08
4.72665e-08
4.67422e-08
4.55063e-08
4.40924e-08
4.33888e-08
4.30922e-08
4.27677e-08
4.23231e-08
4.14043e-08
3.99631e-08
3.91356e-08
3.89248e-08
3.88834e-08
3.84457e-08
3.77218e-08
3.71151e-08
3.65422e-08
3.58654e-08
3.54508e-08
3.52565e-08
3.50733e-08
3.4422e-08
3.34529e-08
3.29455e-08
3.27619e-08
3.26694e-08
3.26225e-08
3.21743e-08
3.14762e-08
3.09003e-08
3.06619e-08
3.05471e-08
3.02683e-08
3.00658e-08
2.99322e-08
2.96938e-08
2.94208e-08
2.93412e-08
2.94758e-08
2.95325e-08
2.92811e-08
2.90237e-08
2.90987e-08
2.94832e-08
2.97266e-08
2.97811e-08
2.98628e-08
3.01782e-08
3.05449e-08
3.08154e-08
3.11191e-08
3.15235e-08
3.20772e-08
3.27373e-08
3.34277e-08
3.38124e-08
3.41845e-08
3.48898e-08
3.57188e-08
3.6687e-08
3.76148e-08
3.82622e-08
3.89058e-08
3.98124e-08
4.09339e-08
4.22426e-08
4.33918e-08
4.4301e-08
4.5394e-08
4.68899e-08
4.85645e-08
4.9916e-08
5.12187e-08
5.30018e-08
5.5084e-08
5.70622e-08
5.89915e-08
6.11893e-08
6.36389e-08
6.65147e-08
6.95547e-08
7.23931e-08
7.5535e-08
7.93908e-08
8.37405e-08
8.84352e-08
9.32997e-08
9.8451e-08
1.04466e-07
1.11778e-07
1.20191e-07
1.29182e-07
1.39269e-07
1.50895e-07
1.64597e-07
1.81294e-07
2.00838e-07
2.23457e-07
2.51283e-07
2.87039e-07
3.31996e-07
3.8755e-07
4.54809e-07
5.31736e-07
6.14742e-07
6.82071e-07
6.90151e-07
6.35733e-07
5.5976e-07
4.89553e-07
4.3338e-07
3.8536e-07
3.4238e-07
3.07594e-07
2.81211e-07
2.60769e-07
2.43043e-07
2.27331e-07
2.14654e-07
2.04169e-07
1.94722e-07
1.85967e-07
1.78227e-07
1.72354e-07
1.67533e-07
1.62508e-07
1.57341e-07
1.52944e-07
1.49956e-07
1.47591e-07
1.44812e-07
1.41847e-07
1.39294e-07
1.37563e-07
1.36404e-07
1.34899e-07
1.33277e-07
1.32007e-07
1.30975e-07
1.3032e-07
1.29614e-07
1.28674e-07
1.27967e-07
1.27772e-07
1.27867e-07
1.27727e-07
1.27417e-07
1.27103e-07
1.27222e-07
1.27457e-07
1.27536e-07
1.27879e-07
1.28487e-07
1.2901e-07
1.29279e-07
1.29609e-07
1.30408e-07
1.31322e-07
1.31734e-07
1.32063e-07
1.32984e-07
1.33837e-07
1.34591e-07
1.35641e-07
1.36792e-07
1.37389e-07
1.38265e-07
1.39075e-07
1.4031e-07
1.4121e-07
1.43039e-07
1.44403e-07
1.46111e-07
1.47636e-07
1.49383e-07
1.499e-07
1.5164e-07
1.53664e-07
1.54584e-07
1.57738e-07
1.64131e-07
1.67467e-07
1.58039e-07
1.61927e-07
1.46448e-07
1.50632e-07
2.1465e-07
2.28332e-07
2.10272e-07
1.83037e-07
2.51232e-07
2.42418e-07
1.63427e-07
1.66905e-07
1.70456e-07
1.83993e-07
1.81794e-07
1.77348e-07
1.7884e-07
1.76565e-07
1.79045e-07
2.02581e-07
1.98758e-07
1.8692e-07
1.79789e-07
1.74794e-07
1.44649e-07
1.32687e-07
1.08999e-07
1.13804e-07
1.34502e-07
1.4293e-07
1.65775e-07
1.77628e-07
2.14003e-07
2.13619e-07
1.71603e-07
1.86977e-07
1.96878e-07
2.19092e-07
1.82211e-07
1.91574e-07
2.18283e-07
1.24692e-07
1.48184e-07
1.82057e-07
2.67906e-07
1.17082e-07
1.19192e-07
4.18258e-08
4.04436e-08
1.65523e-07
1.37313e-07
9.57059e-08
9.4514e-08
9.63017e-08
9.05904e-08
1.19627e-07
1.54361e-07
1.80178e-07
2.00995e-07
2.1371e-07
2.20108e-07
2.21853e-07
2.1993e-07
2.16777e-07
2.1317e-07
2.09166e-07
2.0523e-07
2.02079e-07
2.00088e-07
1.99061e-07
1.9855e-07
1.98125e-07
1.97656e-07
1.97249e-07
1.96528e-07
1.94828e-07
1.9426e-07
1.94151e-07
1.94088e-07
1.94222e-07
1.94783e-07
1.95407e-07
1.95807e-07
1.95908e-07
1.95743e-07
1.95439e-07
1.95275e-07
1.95491e-07
1.96152e-07
1.9716e-07
1.98378e-07
1.99755e-07
2.01064e-07
2.02019e-07
2.02601e-07
2.03017e-07
2.03545e-07
2.04416e-07
2.05598e-07
2.06835e-07
2.07822e-07
2.08479e-07
2.09063e-07
2.09981e-07
2.1142e-07
2.13114e-07
2.14516e-07
2.15239e-07
2.1548e-07
2.15517e-07
2.1522e-07
2.14384e-07
2.13346e-07
2.13375e-07
2.1572e-07
2.19287e-07
2.20704e-07
2.18331e-07
2.1542e-07
2.16466e-07
2.22081e-07
2.25306e-07
2.20604e-07
2.15335e-07
2.16935e-07
2.22042e-07
2.1985e-07
2.14941e-07
2.21007e-07
2.10045e-07
1.78462e-07
2.96802e-07
1.31262e-07
7.82071e-08
1.25211e-07
6.87242e-09
1.76598e-08
1.85519e-08
1.13121e-08
7.20495e-09
2.77848e-09
2.79458e-09
5.93179e-09
1.51826e-08
1.99862e-08
2.74223e-08
4.72058e-08
6.18398e-08
6.35372e-08
6.60788e-08
6.91802e-08
7.2743e-08
6.40508e-08
5.74864e-08
5.32775e-08
4.38805e-08
3.56335e-08
3.30816e-08
3.70614e-08
3.56928e-08
2.41749e-08
2.49769e-08
4.81895e-08
1.13467e-07
5.63867e-08
5.1322e-08
2.33211e-08
2.23155e-08
4.76662e-08
4.6471e-08
2.88591e-08
1.73004e-08
1.73339e-08
2.12745e-08
3.7772e-08
4.24743e-08
1.67512e-08
1.25127e-08
1.258e-08
1.44727e-08
2.07519e-08
1.81078e-08
1.07984e-08
9.13156e-09
1.17538e-08
1.58375e-08
1.36161e-08
1.3519e-08
1.3914e-08
1.56098e-08
2.61357e-08
2.58969e-08
1.90895e-08
1.13382e-08
8.63662e-09
1.02616e-08
1.10486e-08
9.35957e-09
7.95931e-09
7.61623e-09
1.01656e-08
1.62423e-08
1.68228e-08
1.1245e-08
8.61829e-09
8.27366e-09
8.70269e-09
9.17941e-09
9.6505e-09
9.81083e-09
1.21712e-08
2.30089e-08
6.30385e-08
2.32063e-08
2.53025e-08
2.73559e-08
3.42458e-08
4.13024e-08
4.0157e-08
3.57503e-08
1.94133e-08
9.80086e-09
4.63841e-09
4.05133e-09
4.20554e-09
3.06519e-09
3.07553e-09
2.26018e-09
1.03609e-08
9.28665e-09
1.43888e-08
1.30131e-08
1.10458e-08
9.37795e-09
1.81867e-08
1.9182e-08
1.60342e-08
5.3932e-09
6.38347e-09
6.77055e-09
7.18732e-09
4.39063e-08
1.19606e-08
3.72546e-09
2.18881e-09
3.29886e-09
3.53117e-09
5.4634e-09
5.51122e-09
1.04872e-08
1.55751e-08
2.78375e-08
5.2891e-08
3.39284e-08
3.29808e-08
3.91145e-08
1.70407e-08
1.19718e-08
7.23405e-09
7.43191e-09
4.09382e-09
3.75947e-09
6.02712e-09
6.45969e-09
1.08138e-08
1.17043e-08
2.40529e-08
2.5202e-08
1.53172e-08
1.33282e-08
1.23951e-08
1.31318e-08
1.28207e-08
1.23518e-08
1.19468e-08
1.14679e-08
1.1027e-08
1.07931e-08
1.04423e-08
1.01879e-08
1.00172e-08
9.89867e-09
9.77772e-09
9.73647e-09
9.65101e-09
9.54747e-09
9.51278e-09
9.61683e-09
9.73571e-09
9.81212e-09
9.90619e-09
1.00695e-08
1.02863e-08
1.0484e-08
1.0665e-08
1.09143e-08
1.13064e-08
1.17744e-08
1.21673e-08
1.2509e-08
1.29248e-08
1.3465e-08
1.40305e-08
1.45088e-08
1.50551e-08
1.57616e-08
1.64663e-08
1.71053e-08
1.77997e-08
1.8536e-08
1.9432e-08
2.05363e-08
2.15789e-08
2.24086e-08
2.33927e-08
2.4708e-08
2.62835e-08
2.79712e-08
2.96298e-08
3.12272e-08
3.31621e-08
3.54021e-08
3.78905e-08
4.08258e-08
4.41405e-08
4.77228e-08
5.16258e-08
5.57794e-08
6.12081e-08
6.83454e-08
7.74735e-08
8.76618e-08
9.62612e-08
1.0459e-07
1.20112e-07
1.469e-07
1.7787e-07
1.9643e-07
2.04223e-07
2.16245e-07
2.27533e-07
2.14298e-07
1.85487e-07
1.63455e-07
1.49899e-07
1.42725e-07
1.34162e-07
1.18386e-07
1.03903e-07
9.62986e-08
9.11396e-08
8.67942e-08
8.28841e-08
7.90266e-08
7.37945e-08
6.8923e-08
6.57218e-08
6.44904e-08
6.35932e-08
6.15322e-08
5.83042e-08
5.51778e-08
5.33992e-08
5.27559e-08
5.21648e-08
5.12853e-08
4.9866e-08
4.80439e-08
4.70006e-08
4.62784e-08
4.52322e-08
4.41474e-08
4.35944e-08
4.34591e-08
4.29032e-08
4.18334e-08
4.07582e-08
3.97834e-08
3.93624e-08
3.93475e-08
3.92359e-08
3.88176e-08
3.7989e-08
3.69361e-08
3.61751e-08
3.58381e-08
3.57611e-08
3.54947e-08
3.50302e-08
3.44707e-08
3.36236e-08
3.31026e-08
3.30763e-08
3.29835e-08
3.24882e-08
3.17737e-08
3.1373e-08
3.11354e-08
3.09478e-08
3.07319e-08
3.02161e-08
2.99137e-08
2.98447e-08
2.96353e-08
2.94492e-08
2.94609e-08
2.96133e-08
2.95916e-08
2.93207e-08
2.90217e-08
2.90123e-08
2.92947e-08
2.96074e-08
2.97924e-08
2.99416e-08
3.02597e-08
3.04883e-08
3.05321e-08
3.07679e-08
3.14041e-08
3.21087e-08
3.26257e-08
3.30759e-08
3.34192e-08
3.38384e-08
3.45791e-08
3.54669e-08
3.63198e-08
3.71654e-08
3.78741e-08
3.8503e-08
3.94459e-08
4.04931e-08
4.15825e-08
4.27569e-08
4.3892e-08
4.51153e-08
4.65302e-08
4.78715e-08
4.91457e-08
5.06544e-08
5.25307e-08
5.44847e-08
5.63009e-08
5.81179e-08
6.04236e-08
6.29997e-08
6.56448e-08
6.84703e-08
7.12592e-08
7.44963e-08
7.83329e-08
8.22644e-08
8.6588e-08
9.15094e-08
9.67017e-08
1.02469e-07
1.09223e-07
1.1678e-07
1.25154e-07
1.35324e-07
1.46344e-07
1.57922e-07
1.72171e-07
1.89647e-07
2.09917e-07
2.33453e-07
2.61508e-07
2.94139e-07
3.32075e-07
3.74846e-07
4.1734e-07
4.56474e-07
4.86117e-07
4.93204e-07
4.75316e-07
4.42374e-07
4.07417e-07
3.75141e-07
3.43331e-07
3.13196e-07
2.86776e-07
2.64756e-07
2.47007e-07
2.31687e-07
2.18792e-07
2.08405e-07
1.987e-07
1.89438e-07
1.81242e-07
1.74515e-07
1.69289e-07
1.6458e-07
1.5983e-07
1.55233e-07
1.51234e-07
1.48118e-07
1.45732e-07
1.43113e-07
1.40329e-07
1.38077e-07
1.3659e-07
1.35405e-07
1.33845e-07
1.32281e-07
1.31017e-07
1.29995e-07
1.2942e-07
1.28844e-07
1.27993e-07
1.27337e-07
1.27235e-07
1.27225e-07
1.26928e-07
1.26642e-07
1.2648e-07
1.26693e-07
1.26932e-07
1.27122e-07
1.27491e-07
1.27971e-07
1.28444e-07
1.28822e-07
1.29207e-07
1.2994e-07
1.30868e-07
1.3138e-07
1.31972e-07
1.32737e-07
1.33579e-07
1.34197e-07
1.35534e-07
1.3634e-07
1.37393e-07
1.37525e-07
1.3876e-07
1.39468e-07
1.41265e-07
1.42527e-07
1.44793e-07
1.42941e-07
1.45463e-07
1.44316e-07
1.4874e-07
1.57401e-07
1.62622e-07
1.67787e-07
1.54542e-07
1.57396e-07
1.39662e-07
1.43289e-07
2.19909e-07
2.3933e-07
2.1238e-07
1.81344e-07
2.83266e-07
2.66785e-07
1.61589e-07
1.60986e-07
1.65215e-07
1.81323e-07
1.71533e-07
1.67434e-07
1.70513e-07
1.66901e-07
1.72565e-07
1.90334e-07
1.9107e-07
1.86388e-07
1.82533e-07
1.54519e-07
1.39488e-07
1.30953e-07
1.08564e-07
1.13707e-07
1.29805e-07
1.36265e-07
1.59016e-07
1.7761e-07
2.13272e-07
2.23813e-07
1.76115e-07
1.92499e-07
2.08688e-07
2.12991e-07
1.64407e-07
1.90651e-07
1.05021e-07
1.30016e-07
2.28199e-07
2.04798e-07
3.60936e-07
1.09513e-07
1.1085e-07
3.60752e-08
3.5787e-08
1.78304e-07
1.72007e-07
9.44451e-08
7.96754e-08
8.63217e-08
1.05462e-07
1.81793e-07
1.90688e-07
1.42101e-07
1.39538e-07
1.62489e-07
1.75962e-07
1.88373e-07
1.98495e-07
2.04624e-07
2.06845e-07
2.06775e-07
2.06028e-07
2.04558e-07
2.02107e-07
1.99422e-07
1.97318e-07
1.95924e-07
1.95026e-07
1.94474e-07
1.93637e-07
1.92779e-07
1.92648e-07
1.92093e-07
1.90034e-07
1.89898e-07
1.90519e-07
1.91138e-07
1.92181e-07
1.93599e-07
1.94795e-07
1.95422e-07
1.95648e-07
1.95369e-07
1.94897e-07
1.9464e-07
1.94959e-07
1.9582e-07
1.96924e-07
1.9815e-07
1.99344e-07
2.00722e-07
2.01515e-07
2.01966e-07
2.02418e-07
2.03149e-07
2.04291e-07
2.05615e-07
2.06723e-07
2.07327e-07
2.07545e-07
2.0792e-07
2.08996e-07
2.10842e-07
2.12856e-07
2.14163e-07
2.14483e-07
2.1414e-07
2.13621e-07
2.13146e-07
2.12787e-07
2.12974e-07
2.14507e-07
2.17733e-07
2.2019e-07
2.19192e-07
2.16645e-07
2.16498e-07
2.20856e-07
2.25311e-07
2.23094e-07
2.17034e-07
2.16032e-07
2.19324e-07
2.18871e-07
2.14418e-07
2.17057e-07
2.28502e-07
2.15313e-07
1.8221e-07
2.9724e-07
1.30846e-07
7.74524e-08
1.26191e-07
6.87019e-09
1.78853e-08
1.79749e-08
1.06375e-08
7.53961e-09
2.80468e-09
2.8313e-09
8.44735e-09
1.95325e-08
9.24638e-09
8.70734e-09
1.30011e-08
2.18682e-08
3.30594e-08
4.06198e-08
4.18176e-08
3.89234e-08
3.60772e-08
3.36728e-08
3.08374e-08
2.73032e-08
2.52771e-08
2.50699e-08
2.85426e-08
3.17498e-08
2.42472e-08
2.23846e-08
3.14256e-08
3.79271e-08
4.92994e-08
1.73627e-07
4.06601e-08
2.48715e-08
2.64879e-08
2.93315e-08
2.42871e-08
1.61406e-08
1.4233e-08
1.79574e-08
2.54634e-08
2.48618e-08
1.4868e-08
1.03209e-08
9.95586e-09
1.54526e-08
2.49492e-08
1.89193e-08
9.91767e-09
7.76729e-09
8.99428e-09
1.23311e-08
1.30207e-08
1.13747e-08
1.17755e-08
1.65622e-08
2.29516e-08
2.00854e-08
1.74771e-08
1.33747e-08
1.17828e-08
1.39599e-08
1.06863e-08
7.39255e-09
6.39303e-09
6.82287e-09
8.69842e-09
1.00882e-08
9.44056e-09
7.86662e-09
6.96681e-09
6.62313e-09
6.96017e-09
7.03835e-09
6.70853e-09
6.93741e-09
7.62361e-09
1.00729e-08
1.72482e-08
3.63607e-08
3.37756e-08
2.17478e-08
1.53842e-08
1.48493e-08
1.45446e-08
1.4511e-08
2.24129e-08
3.26239e-08
2.60227e-08
1.22968e-08
8.89176e-09
3.83317e-09
3.88659e-09
4.38405e-09
3.45841e-09
4.11374e-09
2.55167e-09
1.36053e-08
1.08154e-08
2.02061e-08
2.08457e-08
1.73011e-08
1.0335e-08
1.78188e-08
1.36609e-08
9.31119e-09
5.33164e-09
5.49935e-09
1.03086e-08
6.90599e-09
9.12729e-09
3.01604e-08
4.06125e-09
2.32868e-09
3.44151e-09
3.52626e-09
5.61636e-09
5.80955e-09
1.22217e-08
2.2166e-08
4.39574e-08
2.59177e-08
2.22581e-08
3.83952e-08
7.81693e-08
1.64996e-08
1.15701e-08
6.77406e-09
6.6897e-09
4.1109e-09
3.9102e-09
5.90192e-09
5.93106e-09
9.84446e-09
1.11815e-08
1.35927e-08
1.6729e-08
1.54492e-08
1.19861e-08
1.11578e-08
1.18208e-08
1.15329e-08
1.11902e-08
1.08215e-08
1.04469e-08
1.01822e-08
1.01569e-08
1.00812e-08
9.99252e-09
9.869e-09
9.75801e-09
9.70618e-09
9.74547e-09
9.82525e-09
9.90289e-09
9.8836e-09
9.92091e-09
1.00587e-08
1.02949e-08
1.05003e-08
1.06545e-08
1.08547e-08
1.11475e-08
1.15428e-08
1.19173e-08
1.22553e-08
1.26811e-08
1.3213e-08
1.37463e-08
1.4249e-08
1.47379e-08
1.53356e-08
1.60702e-08
1.67513e-08
1.7437e-08
1.82451e-08
1.90961e-08
1.99979e-08
2.09834e-08
2.18874e-08
2.28957e-08
2.42964e-08
2.58723e-08
2.73724e-08
2.88505e-08
3.04353e-08
3.22753e-08
3.41196e-08
3.6556e-08
3.98999e-08
4.31725e-08
4.66228e-08
5.05024e-08
5.37797e-08
5.75802e-08
6.3794e-08
7.22153e-08
8.20547e-08
9.09966e-08
9.76694e-08
1.07364e-07
1.23939e-07
1.43209e-07
1.58735e-07
1.66391e-07
1.71697e-07
1.73522e-07
1.63322e-07
1.52367e-07
1.44302e-07
1.38238e-07
1.33223e-07
1.22685e-07
1.07134e-07
9.57246e-08
9.05404e-08
8.76044e-08
8.46057e-08
8.11858e-08
7.65736e-08
7.08427e-08
6.65205e-08
6.45114e-08
6.39982e-08
6.27303e-08
6.01474e-08
5.70657e-08
5.46823e-08
5.33625e-08
5.21771e-08
5.11197e-08
5.05475e-08
4.97951e-08
4.85691e-08
4.69772e-08
4.55471e-08
4.48667e-08
4.45306e-08
4.40025e-08
4.34127e-08
4.27121e-08
4.14785e-08
4.05742e-08
4.03557e-08
4.01376e-08
3.98201e-08
3.93948e-08
3.89446e-08
3.79396e-08
3.67716e-08
3.62985e-08
3.63178e-08
3.62873e-08