/*--------------------------------*- C++ -*----------------------------------*\
| =========                 |                                                 |
| \\      /  F ield         | OpenFOAM: The Open Source CFD Toolbox           |
|  \\    /   O peration     | Version:  v2006                                 |
|   \\  /    A nd           | Website:  www.openfoam.com                      |
|    \\/     M anipulation  |                                                 |
\*---------------------------------------------------------------------------*/
FoamFile
{
    version     2.0;
    format      ascii;
    class       volScalarField;
    location    "4.7";
    object      omega;
}
// * * * * * * * * * * * * * * * * * * * * * * * * * * * * * * * * * * * * * //

dimensions      [0 0 -1 0 0 0 0];


internalField   nonuniform List<scalar> 
33000
(
0.801282
0.801328
0.801381
0.801452
0.801545
0.801662
0.801802
0.801978
0.802216
0.802538
0.802963
0.803524
0.804325
0.805554
0.807291
0.809395
0.811532
0.813367
0.814743
0.815681
0.816283
0.816657
0.816886
0.817031
0.817131
0.817212
0.817285
0.817356
0.817432
0.817497
0.817558
0.817616
0.817669
0.817717
0.817753
0.81778
0.817802
0.817817
0.817824
0.817816
0.817784
0.817741
0.817692
0.81764
0.817585
0.81752
0.817444
0.817362
0.817277
0.817192
0.81711
0.81703
0.816956
0.816887
0.816816
0.816732
0.816624
0.816466
0.816257
0.815994
0.815665
0.81526
0.81478
0.814228
0.813625
0.813038
0.812466
0.811863
0.811217
0.81056
0.809952
0.809446
0.809077
0.808868
0.808862
0.809019
0.80934
0.809847
0.810559
0.811365
0.812022
0.812307
0.812314
0.812081
0.811816
0.811835
0.811824
0.811783
0.811686
0.81149
0.811154
0.810661
0.810125
0.809527
0.808906
0.808324
0.807874
0.807543
0.807459
0.80766
0.808135
0.808631
0.808888
0.808912
0.808826
0.808734
0.808705
0.808671
0.808614
0.808537
0.808443
0.808328
0.808185
0.807998
0.807764
0.807519
0.807335
0.807319
0.807469
0.807619
0.807681
0.807678
0.807669
0.807676
0.807693
0.807707
0.807717
0.80772
0.807722
0.807723
0.807727
0.807728
0.807729
0.807723
0.807717
0.80771
0.807704
0.807697
0.80769
0.807683
0.807672
0.807659
0.807645
0.807632
0.807615
0.807598
0.80758
0.807563
0.807549
0.807533
0.807515
0.807498
0.807486
0.807483
0.80749
0.807502
0.80752
0.807546
0.807576
0.807603
0.807624
0.807638
0.807646
0.807649
0.807645
0.807634
0.807619
0.807603
0.807588
0.807573
0.807557
0.807541
0.807528
0.807515
0.807501
0.807487
0.807474
0.807462
0.807452
0.80744
0.807428
0.807417
0.807408
0.807399
0.807388
0.807377
0.807367
0.807357
0.807349
0.807339
0.807328
0.807317
0.807306
0.807295
0.807283
0.807269
0.807256
0.807242
0.807227
0.80721
0.807194
0.80718
0.807168
0.807154
0.807137
0.807119
0.807103
0.807089
0.807076
0.807063
0.807047
0.807031
0.807018
0.807006
0.806991
0.806974
0.806956
0.806939
0.806923
0.806908
0.806891
0.806868
0.806843
0.806818
0.806795
0.806773
0.80675
0.806724
0.806696
0.80667
0.806643
0.806617
0.806593
0.806568
0.80654
0.806513
0.806487
0.80646
0.806435
0.806408
0.80638
0.806353
0.806326
0.806299
0.80627
0.80624
0.806211
0.806183
0.806155
0.806124
0.806093
0.806062
0.806032
0.806001
0.805969
0.805938
0.805905
0.805872
0.805839
0.805805
0.805772
0.805739
0.805704
0.805669
0.805634
0.805599
0.805565
0.80553
0.805494
0.805459
0.805426
0.805395
0.805365
0.805337
0.80531
0.805283
0.805258
0.805235
0.805213
0.805193
0.805174
0.805158
0.805143
0.805128
0.805115
0.805103
0.805092
0.805079
0.805065
0.805049
0.805032
0.805013
0.804993
0.804973
0.804951
0.804928
0.804904
0.804879
0.804853
0.804826
0.804798
0.804769
0.804739
0.804709
0.804677
0.804645
0.804612
0.804579
0.804547
0.804515
0.804483
0.804452
0.80442
0.80439
0.804359
0.80433
0.8043
0.804272
0.804243
0.804215
0.804188
0.804161
0.804134
0.804108
0.804082
0.804056
0.80403
0.804004
0.803979
0.803954
0.803928
0.803903
0.803878
0.803853
0.803828
0.803803
0.803777
0.803752
0.803726
0.803701
0.803675
0.803649
0.803623
0.803597
0.803571
0.803545
0.803519
0.803492
0.803466
0.803439
0.803412
0.803386
0.803359
0.803332
0.803305
0.803277
0.80325
0.803223
0.803196
0.803169
0.803141
0.803114
0.803087
0.803059
0.803032
0.803005
0.802978
0.802951
0.802924
0.802897
0.80287
0.802843
0.802816
0.802789
0.802763
0.802736
0.80271
0.802684
0.802657
0.802632
0.802606
0.80258
0.802554
0.802529
0.802504
0.802479
0.802454
0.802429
0.802405
0.80238
0.802356
0.802332
0.802308
0.802284
0.802261
0.802237
0.802214
0.802191
0.802168
0.802146
0.802123
0.802101
0.802079
0.802057
0.802035
0.802013
0.801992
0.801971
0.80195
0.801929
0.801909
0.801888
0.801868
0.801848
0.801828
0.801809
0.801789
0.80177
0.80175
0.801732
0.801714
0.801696
0.801679
0.801661
0.801641
0.801625
0.801613
0.801594
0.801589
0.801581
0.801598
0.801585
0.801586
0.801576
0.801571
0.801562
0.801554
0.801545
0.801537
0.801528
0.801519
0.80151
0.801499
0.80149
0.801483
0.801472
0.80147
0.801467
0.801478
0.801472
0.801472
0.801468
0.801465
0.801461
0.801458
0.801453
0.801449
0.801441
0.801436
0.801434
0.801425
0.801425
0.801416
0.801384
0.801381
0.80139
0.801365
0.801461
0.801521
0.801825
0.801871
0.801998
0.802053
0.802107
0.802147
0.802179
0.802204
0.802223
0.802239
0.802252
0.802263
0.802274
0.802282
0.80229
0.802297
0.802303
0.802309
0.802314
0.802319
0.802324
0.802328
0.802332
0.802337
0.80234
0.802344
0.802347
0.80235
0.802353
0.802355
0.802357
0.802358
0.802359
0.80236
0.802359
0.802359
0.802358
0.802357
0.802356
0.802355
0.802354
0.802352
0.802351
0.80235
0.802348
0.802347
0.802345
0.802343
0.802341
0.802339
0.802337
0.802334
0.802331
0.802329
0.802326
0.802323
0.80232
0.802317
0.802314
0.80231
0.802307
0.802303
0.8023
0.802297
0.802293
0.80229
0.802286
0.802282
0.802279
0.802274
0.80227
0.802265
0.802261
0.802256
0.802251
0.802246
0.802242
0.802235
0.802212
0.802191
0.80189
0.00310907
0.0143493
0.0494318
0.124848
0.248474
0.422192
0.572395
0.646514
0.677805
0.713203
0.777585
0.867362
0.952704
1.00687
1.03127
1.03122
1.00864
0.96105
0.893346
0.815125
0.738857
0.674192
0.62131
0.578819
0.545604
0.519597
0.501483
0.492433
0.490064
0.488896
0.482738
0.470272
0.457087
0.445101
0.432902
0.4198
0.409414
0.406785
0.409951
0.409474
0.400346
0.384153
0.370398
0.366255
0.369517
0.371207
0.365106
0.351358
0.337484
0.328929
0.323185
0.316714
0.312462
0.314931
0.325178
0.336691
0.3424
0.342398
0.345433
0.358916
0.377596
0.393485
0.405871
0.421978
0.453947
0.50697
0.57868
0.66118
0.743294
0.814155
0.867438
0.905717
0.936018
0.964274
0.99502
1.01819
1.03803
1.03923
1.03627
1.05339
1.14811
1.22151
1.14812
0.972545
0.672432
0.423994
0.237611
0.145372
0.111427
0.100077
0.107147
0.124755
0.154154
0.193037
0.237082
0.284999
0.334246
0.370101
0.419189
0.466272
0.478446
0.455707
0.422363
0.33228
0.258891
0.198766
0.153745
0.121023
0.107943
0.103027
0.10085
0.100914
0.103356
0.108355
0.115585
0.121205
0.129065
0.130338
0.123425
0.124431
0.122771
0.11775
0.116606
0.109531
0.103529
0.0991012
0.0966254
0.0962778
0.0964584
0.0951381
0.0943368
0.0943182
0.093712
0.093386
0.0934163
0.0935496
0.0933369
0.0930164
0.0925508
0.0917086
0.0906285
0.0894857
0.0886311
0.0874911
0.0858499
0.0840296
0.0827987
0.0818688
0.0807187
0.0789974
0.0768451
0.0751304
0.0738484
0.0727052
0.0713874
0.069805
0.0681299
0.0669048
0.0658763
0.0645927
0.0631538
0.061944
0.0610394
0.0600629
0.0587922
0.0575858
0.0567266
0.0559951
0.0549826
0.0537419
0.0526818
0.0519387
0.0513033
0.0505128
0.0494891
0.0484925
0.0477479
0.0471611
0.0465222
0.0458225
0.045097
0.0444586
0.0439312
0.0433581
0.0426236
0.0419317
0.0414871
0.0411617
0.0407921
0.0403586
0.0398938
0.0394915
0.0391414
0.0387986
0.0384727
0.0381774
0.0378804
0.0375545
0.0371929
0.0368956
0.0367299
0.0366409
0.0364993
0.0362465
0.0359343
0.0356649
0.0355005
0.0354085
0.0352762
0.0350612
0.0348347
0.034664
0.0345113
0.0343101
0.034041
0.0337679
0.0335976
0.033521
0.0334574
0.033317
0.0330343
0.0327018
0.0324849
0.0324089
0.0323774
0.0323117
0.0321876
0.0319975
0.0317774
0.0316308
0.0316071
0.0316387
0.0316269
0.0315151
0.0313498
0.0312854
0.0313706
0.0315005
0.0315702
0.0315924
0.0316218
0.0316816
0.0317562
0.031845
0.0319322
0.0319999
0.0321725
0.0324146
0.0325331
0.0325586
0.0326471
0.0328218
0.0330079
0.0331232
0.0332535
0.0334144
0.0334984
0.0335212
0.0335979
0.0337338
0.0338398
0.0338345
0.0338071
0.0338582
0.0339776
0.0340956
0.0341739
0.0341327
0.0339695
0.033837
0.0338284
0.0339177
0.0340248
0.0340481
0.033972
0.0338402
0.0337375
0.0337034
0.0336759
0.033581
0.033522
0.0335724
0.0335581
0.0334168
0.0332132
0.0330411
0.0329585
0.0329524
0.0329404
0.0328683
0.0327048
0.032485
0.0323336
0.032287
0.0322557
0.0321718
0.0320414
0.0318851
0.0317453
0.0316414
0.0315495
0.0314336
0.0312673
0.031103
0.0309739
0.0308516
0.030681
0.0304455
0.0302749
0.0301539
0.0300157
0.0298276
0.0296036
0.0293958
0.0292186
0.0290476
0.0288408
0.0286138
0.0284185
0.0282453
0.028065
0.0278358
0.027582
0.0274015
0.0272487
0.027052
0.0267979
0.0265835
0.02643
0.0262811
0.0261205
0.0259358
0.0257319
0.0255378
0.0253652
0.0252148
0.0250856
0.024964
0.0248279
0.0246792
0.0245682
0.0244956
0.0244239
0.024335
0.0242129
0.0240741
0.023976
0.0239108
0.0238484
0.0237419
0.0236178
0.0235483
0.0234994
0.0234377
0.0233467
0.0232518
0.0231997
0.0231497
0.0230714
0.0229791
0.0229132
0.0228608
0.0228009
0.0227386
0.022656
0.0225793
0.022528
0.0224767
0.0224192
0.0223527
0.0222635
0.0221772
0.022108
0.0220434
0.021964
0.0218845
0.0218225
0.0217627
0.0217009
0.0216261
0.0215312
0.021441
0.0213687
0.0213066
0.0212483
0.0211774
0.0211012
0.0210161
0.0209299
0.0208703
0.0207988
0.0206933
0.0205941
0.0205474
0.0204702
0.0203773
0.0203114
0.0202413
0.0201541
0.0200549
0.0199637
0.0198708
0.0198002
0.0197274
0.0196637
0.0195799
0.019516
0.019406
0.0193459
0.0192754
0.0192063
0.019121
0.0190106
0.0189603
0.0188374
0.0187392
0.0186528
0.0184684
0.0183361
0.018477
0.0182375
0.0182184
0.0181256
0.0171606
0.0171466
0.0184181
0.0176663
0.0195445
0.0219928
0.0273189
0.0276768
0.0225426
0.0215289
0.0197731
0.0192293
0.0186722
0.0185503
0.0182539
0.0180507
0.0176983
0.0175711
0.0165771
0.0165686
0.0176526
0.0168749
0.0182015
0.0198246
0.0228207
0.0226078
0.0194022
0.0190759
0.0180018
0.0176575
0.017378
0.017107
0.0167294
0.0164829
0.0161523
0.0162247
0.0157986
0.0160081
0.0159497
0.0155887
0.0158934
0.0173181
0.0207084
0.0337227
0.0448095
0.0693006
0.0651399
0.0495697
0.0393737
0.032234
0.0280427
0.0252649
0.0234258
0.0221352
0.0211871
0.0204769
0.0199254
0.0194724
0.0191017
0.0188133
0.0185943
0.0184186
0.0182595
0.0181043
0.0179561
0.0178263
0.0177175
0.0176291
0.0175508
0.0174795
0.0174075
0.0173185
0.0172472
0.0171714
0.0170841
0.0169925
0.0168949
0.0167938
0.0166989
0.0166165
0.0165449
0.0164828
0.0164358
0.0164038
0.0163576
0.0163257
0.0163031
0.0162861
0.0162751
0.0162673
0.0162571
0.0162404
0.016215
0.0161773
0.0161325
0.0160839
0.0160351
0.0159923
0.0159658
0.0159618
0.0159725
0.0159745
0.0159469
0.0158886
0.0158433
0.0158532
0.0159156
0.0159892
0.0159936
0.0158952
0.0158164
0.0158434
0.0159194
0.0159237
0.0157953
0.0156903
0.0156981
0.0157218
0.0156691
0.015598
0.0156279
0.0157094
0.0156763
0.0154897
0.0155616
0.0146403
0.0103689
0.00169053
0.00599669
0.02054
0.0544228
0.112754
0.182728
0.234062
0.272097
0.323711
0.4041
0.513775
0.62808
0.718714
0.766823
0.767001
0.73022
0.667531
0.591215
0.514756
0.447585
0.393878
0.352025
0.319095
0.293231
0.273697
0.257894
0.244601
0.236143
0.233367
0.233384
0.23199
0.224825
0.213207
0.202416
0.193564
0.186078
0.179555
0.175744
0.174576
0.172282
0.167397
0.159817
0.151662
0.147819
0.148264
0.148087
0.14488
0.137906
0.129296
0.122259
0.116898
0.112201
0.108986
0.109773
0.114091
0.118216
0.120851
0.123
0.128573
0.138602
0.148811
0.15523
0.157778
0.160079
0.169151
0.185703
0.20601
0.226497
0.245156
0.262976
0.278548
0.289387
0.296663
0.304799
0.316599
0.346791
0.416884
0.530566
0.640076
0.709073
0.760405
0.773115
0.725414
0.653948
0.56614
0.469509
0.378641
0.273299
0.15742
0.0787353
0.0384992
0.0268826
0.0255977
0.0305763
0.0377441
0.0446937
0.048653
0.0489723
0.0502451
0.0604192
0.0631219
0.0717349
0.0814332
0.0818204
0.0787269
0.0703153
0.0518772
0.0361851
0.026889
0.0208317
0.0170107
0.0146393
0.0134393
0.0131858
0.013769
0.0142852
0.0150507
0.0152433
0.014506
0.0148594
0.0154148
0.0156333
0.016784
0.0160996
0.0144459
0.0136181
0.0126493
0.0121622
0.0118473
0.0114155
0.0112262
0.011206
0.0110282
0.0109462
0.0109635
0.0109899
0.0109272
0.0108378
0.0107256
0.0105345
0.0103429
0.0101398
0.00995178
0.00970771
0.00940158
0.00909651
0.00887843
0.00868888
0.00845298
0.00814417
0.00781158
0.00754414
0.00733031
0.00712785
0.00689228
0.00664535
0.00640954
0.00622805
0.00606699
0.00588071
0.00567808
0.00550362
0.00536884
0.00523258
0.00506769
0.00490992
0.00479339
0.00469187
0.00456578
0.00441886
0.00428996
0.00419598
0.00411485
0.00402107
0.00391006
0.00380203
0.00371576
0.0036451
0.00357206
0.00349884
0.00342942
0.00336618
0.00330748
0.00324471
0.00317248
0.00310563
0.00305714
0.0030205
0.00298521
0.00294688
0.00290515
0.00286599
0.00282839
0.00279135
0.00275914
0.00273328
0.00271005
0.00268287
0.0026503
0.00262156
0.00260416
0.00259466
0.00258218
0.00256075
0.00253493
0.00251303
0.00249873
0.00248895
0.0024761
0.00245766
0.00243811
0.00242135
0.00240538
0.00238703
0.00236458
0.00234156
0.00232516
0.00231488
0.00230564
0.00229234
0.00227084
0.00224599
0.00222702
0.00221556
0.00220761
0.00219982
0.00218968
0.00217492
0.00215742
0.00214397
0.00213822
0.0021371
0.00213472
0.00212557
0.00211199
0.00210535
0.00210917
0.00211717
0.00212254
0.00212425
0.00212452
0.00212627
0.00213106
0.00213729
0.0021426
0.00214745
0.00216015
0.00217809
0.00218841
0.00219201
0.00219907
0.00221169
0.00222596
0.00223618
0.00224622
0.00225799
0.00226613
0.00227222
0.00228191
0.00229239
0.00229761
0.00229611
0.00229634
0.00230253
0.00231278
0.0023226
0.00232796
0.00232403
0.00231255
0.00230422
0.00230483
0.00231088
0.00231629
0.00231653
0.00231234
0.00230526
0.00229807
0.00229286
0.00228831
0.00228157
0.00227765
0.00228079
0.00227895
0.00226774
0.00225312
0.00224172
0.00223565
0.00223327
0.00223014
0.00222358
0.00221199
0.00219756
0.00218711
0.00218222
0.00217718
0.00216918
0.00215992
0.00215002
0.00214005
0.0021306
0.00212165
0.00211196
0.00210054
0.00208921
0.00207824
0.00206708
0.00205442
0.00203873
0.0020264
0.00201602
0.00200423
0.00199026
0.00197518
0.00196033
0.00194653
0.00193315
0.00191858
0.00190351
0.00188954
0.00187612
0.00186235
0.00184699
0.00183132
0.00181912
0.00180723
0.0017933
0.00177763
0.00176428
0.00175372
0.00174333
0.00173227
0.00172059
0.00170883
0.0016977
0.00168752
0.00167845
0.0016707
0.00166363
0.0016564
0.00164906
0.00164301
0.00163845
0.00163431
0.0016294
0.00162328
0.00161692
0.00161233
0.00160882
0.00160528
0.00160036
0.00159504
0.00159169
0.00158892
0.00158578
0.00158188
0.00157784
0.00157503
0.00157221
0.00156893
0.00156564
0.00156301
0.00156
0.0015568
0.00155417
0.00155086
0.00154781
0.00154538
0.00154258
0.00153985
0.00153695
0.00153313
0.00152937
0.0015261
0.00152321
0.00151988
0.00151647
0.00151336
0.00151009
0.00150713
0.00150394
0.00150002
0.00149606
0.00149271
0.00148986
0.00148706
0.00148341
0.00147978
0.00147611
0.00147229
0.00146916
0.00146559
0.00146128
0.0014573
0.00145469
0.00145079
0.00144667
0.00144331
0.00143984
0.00143614
0.0014319
0.00142798
0.00142385
0.00142053
0.00141685
0.00141374
0.00140977
0.00140738
0.00140258
0.00139965
0.00139728
0.00139411
0.00138947
0.00138349
0.00138108
0.00137445
0.00137046
0.00137035
0.00136312
0.00135837
0.00136411
0.00134202
0.00134831
0.00137238
0.00137445
0.00140253
0.00143993
0.00147982
0.00153191
0.00153523
0.00166736
0.00163032
0.00148204
0.00144276
0.0014016
0.00137808
0.00136647
0.00136029
0.0013528
0.00133048
0.0013261
0.00134774
0.00133834
0.00135634
0.00138052
0.00140145
0.0014243
0.00141397
0.00146603
0.00143639
0.00136992
0.0013519
0.0013294
0.00131075
0.00130818
0.00130025
0.00129424
0.00129882
0.00129547
0.00132151
0.00131353
0.00137654
0.0014423
0.00159731
0.00173357
0.0018796
0.00240949
0.00311673
0.00355678
0.00504725
0.00398286
0.00285793
0.00231
0.00196988
0.00177765
0.00165638
0.00157648
0.00151932
0.00147695
0.00144515
0.00142046
0.00140056
0.00138465
0.00137204
0.00136172
0.00135272
0.00134453
0.00133703
0.00133072
0.00132548
0.00132138
0.0013182
0.00131537
0.00131258
0.00130957
0.00130638
0.00130296
0.00129947
0.00129616
0.00129293
0.00128971
0.00128658
0.00128375
0.00128125
0.00127887
0.00127647
0.00127417
0.00127219
0.00127075
0.00126953
0.00126874
0.00126824
0.00126782
0.00126725
0.00126642
0.00126537
0.00126426
0.00126311
0.00126182
0.00126028
0.00125851
0.00125686
0.00125582
0.00125566
0.0012562
0.00125671
0.00125644
0.00125561
0.0012554
0.00125614
0.00125765
0.00125855
0.00125724
0.0012554
0.00125523
0.0012565
0.0012571
0.0012554
0.00125304
0.00125302
0.00125363
0.00125274
0.00125127
0.00125191
0.00125302
0.00125402
0.00125914
0.00127322
0.00130299
0.00128927
0.00116741
0.00136008
0.00347671
0.0105624
0.0272072
0.0562288
0.0921354
0.121989
0.149378
0.186429
0.237604
0.29795
0.354895
0.39918
0.418818
0.409449
0.377889
0.333619
0.285981
0.24256
0.207244
0.180298
0.15983
0.144048
0.131909
0.122769
0.11548
0.109077
0.10414
0.101959
0.101372
0.100104
0.0970034
0.0916176
0.0857814
0.0809973
0.0772031
0.074067
0.0715654
0.0697199
0.06773
0.0655191
0.0629158
0.0600713
0.0579998
0.0569408
0.0560689
0.0547346
0.0524864
0.0494344
0.0460989
0.0430467
0.0405486
0.0388464
0.0384378
0.0391113
0.0400678
0.0410565
0.0425596
0.0457027
0.0503243
0.0546918
0.0578078
0.0598335
0.0622032
0.0660676
0.0711829
0.0777859
0.0867
0.0982779
0.110673
0.120913
0.128403
0.133825
0.137886
0.141931
0.149302
0.164607
0.200752
0.262353
0.30976
0.353564
0.390742
0.398328
0.386399
0.358579
0.322512
0.289491
0.265106
0.247569
0.214241
0.171108
0.108117
0.0587112
0.0287526
0.0175025
0.0132191
0.0118293
0.0113795
0.0109479
0.0103271
0.00997766
0.0106825
0.0139702
0.0168594
0.0215804
0.0274255
0.0308138
0.0318624
0.0301537
0.0261434
0.0180213
0.0117506
0.00761347
0.00550575
0.00435084
0.00369657
0.00334863
0.00320641
0.00317906
0.00327501
0.00341414
0.00359205
0.00391934
0.00417231
0.0042615
0.00450993
0.00422476
0.0036303
0.00330303
0.00297111
0.00280524
0.00272576
0.00263531
0.00257751
0.00256165
0.00256261
0.00254238
0.00252901
0.00251512
0.0024746
0.00243614
0.00240261
0.00236725
0.00232995
0.0022845
0.00223697
0.00219905
0.00216554
0.00212676
0.00208308
0.00204092
0.00200516
0.0019718
0.00193943
0.001906
0.00187434
0.00184459
0.0018191
0.00179641
0.00177367
0.00174974
0.00172639
0.00170578
0.00168735
0.00166893
0.00165088
0.00163485
0.00162016
0.00160576
0.00159063
0.00157563
0.00156321
0.00155326
0.00154337
0.00153246
0.00152148
0.00151175
0.00150386
0.00149686
0.00148967
0.00148237
0.00147562
0.0014698
0.00146457
0.00145931
0.00145372
0.00144836
0.00144383
0.00144001
0.00143666
0.00143362
0.00143055
0.00142689
0.00142253
0.00141862
0.00141614
0.00141465
0.00141277
0.00140951
0.00140537
0.00140218
0.00140073
0.00139958
0.00139683
0.00139229
0.0013875
0.0013838
0.00138141
0.00137934
0.00137603
0.00137091
0.00136517
0.00136065
0.00135734
0.00135299
0.0013471
0.00134117
0.00133573
0.00133045
0.00132569
0.00132132
0.00131614
0.00130981
0.00130277
0.00129633
0.00129159
0.00128802
0.00128392
0.00127835
0.00127202
0.00126605
0.00126138
0.00125795
0.00125375
0.00124861
0.00124433
0.00124134
0.00123833
0.0012344
0.00123046
0.00122741
0.00122519
0.00122369
0.00122175
0.00121899
0.00121625
0.00121429
0.00121321
0.00121235
0.00121128
0.00121039
0.00120953
0.00120847
0.00120705
0.00120587
0.00120583
0.00120575
0.00120484
0.00120368
0.00120275
0.00120184
0.0012006
0.00119963
0.00119864
0.00119766
0.00119719
0.00119635
0.00119477
0.00119303
0.00119169
0.00119062
0.0011892
0.00118729
0.00118527
0.00118388
0.00118295
0.00118157
0.00117953
0.00117745
0.00117575
0.00117419
0.0011725
0.00117075
0.00116903
0.00116712
0.00116526
0.00116331
0.00116106
0.00115924
0.00115782
0.00115612
0.00115416
0.00115228
0.00115029
0.00114818
0.00114639
0.00114475
0.00114297
0.00114105
0.00113914
0.00113731
0.00113548
0.00113354
0.00113138
0.00112934
0.00112753
0.00112566
0.00112345
0.00112126
0.00111936
0.0011175
0.00111553
0.00111336
0.00111107
0.00110903
0.0011071
0.00110505
0.00110285
0.00110079
0.00109885
0.00109678
0.00109476
0.00109287
0.00109099
0.00108915
0.00108729
0.00108537
0.00108367
0.00108213
0.00108058
0.00107901
0.00107753
0.00107619
0.00107489
0.00107364
0.00107253
0.00107161
0.00107078
0.00107
0.00106926
0.00106853
0.00106788
0.00106727
0.00106669
0.00106613
0.00106562
0.00106527
0.00106495
0.00106459
0.00106424
0.00106381
0.00106333
0.00106305
0.00106287
0.00106269
0.0010624
0.00106203
0.00106169
0.00106146
0.00106133
0.00106116
0.00106087
0.0010605
0.00106028
0.00106014
0.00105991
0.00105956
0.0010592
0.00105897
0.00105874
0.00105846
0.00105813
0.00105773
0.00105739
0.00105711
0.0010568
0.00105637
0.00105593
0.00105559
0.00105525
0.00105486
0.0010544
0.00105396
0.00105355
0.00105311
0.00105264
0.00105218
0.00105173
0.00105127
0.00105075
0.00105021
0.00104972
0.00104927
0.00104875
0.00104826
0.00104775
0.00104718
0.00104663
0.00104614
0.00104562
0.00104511
0.00104452
0.001044
0.00104343
0.00104294
0.00104238
0.00104194
0.00104108
0.00104051
0.00104012
0.00103968
0.00103942
0.00103958
0.00103914
0.00103833
0.00103743
0.00104261
0.00104268
0.00104944
0.00105548
0.00107848
0.00107691
0.00105658
0.00105418
0.00105093
0.0010481
0.00104072
0.00104048
0.00103768
0.00103841
0.00103875
0.00103545
0.00103493
0.00104065
0.00103997
0.00104162
0.00104514
0.00105114
0.00106119
0.00105868
0.00104402
0.00104287
0.00103956
0.00103687
0.00103049
0.00102944
0.00103056
0.00102939
0.00103037
0.0010291
0.00103075
0.0010307
0.00104924
0.00103694
0.00103142
0.00107489
0.00109076
0.00116568
0.0012153
0.00135748
0.00132607
0.00119368
0.00119896
0.00118554
0.00116002
0.00116101
0.00116852
0.00113934
0.00118012
0.00114169
0.00110309
0.00108086
0.00106622
0.0010562
0.00104884
0.00104328
0.00103898
0.00103557
0.00103279
0.00103051
0.00102865
0.00102714
0.00102589
0.00102485
0.00102398
0.00102324
0.00102261
0.0010221
0.00102164
0.00102128
0.00102111
0.00102093
0.00102076
0.00102061
0.00102048
0.00102033
0.00102017
0.00102002
0.00101988
0.00101974
0.0010196
0.00101948
0.00101938
0.00101928
0.00101921
0.00101915
0.0010191
0.00101902
0.00101895
0.00101888
0.00101881
0.00101876
0.00101871
0.00101867
0.0010186
0.00101851
0.00101841
0.00101832
0.00101826
0.00101822
0.00101816
0.00101808
0.00101799
0.00101789
0.00101778
0.00101767
0.00101758
0.00101753
0.00101755
0.0010176
0.00101762
0.00101752
0.00101736
0.00101734
0.00101745
0.00101751
0.00101731
0.00101705
0.00101699
0.00101699
0.0010169
0.00101678
0.00101686
0.00101711
0.00101932
0.00102821
0.00105107
0.00108711
0.00109554
0.00104298
0.00120535
0.0023347
0.00614224
0.015143
0.0309352
0.0507299
0.0665224
0.0793477
0.0958763
0.116362
0.137317
0.154437
0.166256
0.171554
0.167059
0.154362
0.137029
0.118771
0.102437
0.0892415
0.0790136
0.0711066
0.0648945
0.0599269
0.0559738
0.0528008
0.0500203
0.0477388
0.0462242
0.045068
0.0438478
0.0423818
0.0403867
0.0381254
0.0360652
0.0343643
0.0329798
0.0317315
0.0305438
0.0294363
0.0284896
0.0276436
0.0267242
0.0256756
0.0245931
0.0237676
0.0232767
0.0228188
0.0219401
0.0205535
0.0190099
0.0177084
0.0168382
0.0163742
0.0161879
0.0162076
0.016445
0.0170363
0.0182343
0.0199503
0.0217872
0.0235457
0.025101
0.0265919
0.0281986
0.0300924
0.032859
0.0371627
0.0431683
0.0498292
0.0554852
0.0593756
0.0624816
0.0658905
0.0698646
0.0741472
0.0785333
0.0847298
0.0961155
0.11063
0.130339
0.155363
0.169837
0.181867
0.191284
0.19151
0.186837
0.180983
0.175813
0.166592
0.159814
0.151408
0.132035
0.109633
0.0762841
0.0476072
0.0255682
0.0153066
0.0102676
0.00756586
0.00604631
0.00528243
0.00506389
0.00546669
0.00667052
0.00915678
0.0123436
0.016061
0.0220812
0.0264319
0.0279638
0.0266084
0.0224826
0.0150427
0.00956862
0.00606052
0.00422737
0.00318159
0.00257461
0.00226177
0.00217851
0.00224589
0.00237282
0.00247944
0.0025988
0.00273867
0.00295077
0.00311263
0.00328327
0.003029
0.0025518
0.00228893
0.00202993
0.00188781
0.00183789
0.0018315
0.00180025
0.00174638
0.00171923
0.0016901
0.00168109
0.00167662
0.00166451
0.00165236
0.00164202
0.00162666
0.00161462
0.00160474
0.00159568
0.00158666
0.00157687
0.00156583
0.00155561
0.00154658
0.00154005
0.00153375
0.00152582
0.00151642
0.00150811
0.00150198
0.00149635
0.00148968
0.00148225
0.00147575
0.00147045
0.00146465
0.00145791
0.00145195
0.00144749
0.00144351
0.00143878
0.00143351
0.00142914
0.00142584
0.00142247
0.00141898
0.00141589
0.00141302
0.00141019
0.00140711
0.00140398
0.00140162
0.0014002
0.00139903
0.00139754
0.00139514
0.00139217
0.00138938
0.00138736
0.00138654
0.00138612
0.0013852
0.00138371
0.00138147
0.00137883
0.00137691
0.00137597
0.00137539
0.00137418
0.0013718
0.0013691
0.0013673
0.0013662
0.0013645
0.00136124
0.0013575
0.00135484
0.00135311
0.00135096
0.00134739
0.00134251
0.0013375
0.0013341
0.00133196
0.00132862
0.0013235
0.00131765
0.00131175
0.00130656
0.00130283
0.0012995
0.00129466
0.00128824
0.00128153
0.00127581
0.00127113
0.00126694
0.00126264
0.00125807
0.0012529
0.00124694
0.00124114
0.00123656
0.00123294
0.00122924
0.00122481
0.00122044
0.00121659
0.00121265
0.00120876
0.00120603
0.00120367
0.00120062
0.00119743
0.00119452
0.00119166
0.00118873
0.00118689
0.00118597
0.00118458
0.00118257
0.00118054
0.0011789
0.00117727
0.00117527
0.00117397
0.00117328
0.00117194
0.00116995
0.00116864
0.00116798
0.00116693
0.00116552
0.00116374
0.00116185
0.0011607
0.00115973
0.00115833
0.00115702
0.00115577
0.00115421
0.0011523
0.00115057
0.00114898
0.00114739
0.00114607
0.00114487
0.00114331
0.00114146
0.00113971
0.00113804
0.00113619
0.00113466
0.00113349
0.00113207
0.00113015
0.00112819
0.00112651
0.00112511
0.00112379
0.00112219
0.00112051
0.00111896
0.00111732
0.00111567
0.00111424
0.0011127
0.0011111
0.00110958
0.00110808
0.00110664
0.00110518
0.00110358
0.00110191
0.00110042
0.00109908
0.00109762
0.00109601
0.00109433
0.00109284
0.00109144
0.00108992
0.0010883
0.00108671
0.00108525
0.00108379
0.00108221
0.00108061
0.00107913
0.00107775
0.00107633
0.00107483
0.00107334
0.00107189
0.00107058
0.0010693
0.00106797
0.00106668
0.00106548
0.00106435
0.00106327
0.00106222
0.00106118
0.00106027
0.0010595
0.00105869
0.00105792
0.00105725
0.00105664
0.00105609
0.0010556
0.00105516
0.00105469
0.00105427
0.00105391
0.00105355
0.00105324
0.00105299
0.00105274
0.00105251
0.00105227
0.00105198
0.00105174
0.00105157
0.00105144
0.00105129
0.00105109
0.00105088
0.00105064
0.00105049
0.00105039
0.00105026
0.00105005
0.00104984
0.00104968
0.0010495
0.0010493
0.00104911
0.00104889
0.00104866
0.00104847
0.00104826
0.001048
0.00104771
0.00104745
0.0010472
0.00104692
0.00104663
0.00104632
0.00104599
0.00104568
0.00104535
0.00104501
0.00104464
0.00104429
0.00104395
0.00104356
0.00104318
0.00104277
0.00104238
0.00104196
0.00104159
0.00104115
0.00104075
0.00104035
0.00103996
0.00103951
0.00103907
0.00103859
0.00103818
0.00103777
0.00103737
0.0010369
0.00103646
0.00103586
0.00103531
0.00103513
0.00103467
0.00103624
0.00103524
0.00103434
0.00103386
0.00103323
0.00103776
0.00103846
0.00104545
0.00105211
0.00107597
0.00107414
0.00105248
0.00104974
0.00104496
0.00104062
0.00103176
0.00103033
0.00102879
0.00102824
0.00102878
0.00102824
0.00102821
0.00103556
0.00103586
0.00104124
0.00104468
0.00106061
0.00105784
0.00104583
0.00104
0.00103669
0.00103525
0.00103113
0.00102436
0.00102282
0.00102471
0.00102284
0.00102493
0.0010238
0.00102371
0.00102522
0.00104546
0.00104062
0.00106947
0.00107921
0.00113982
0.00118011
0.00125771
0.00137467
0.00133969
0.00119521
0.00119281
0.00116747
0.00112574
0.00109028
0.00106402
0.00103647
0.00103481
0.00104337
0.00104604
0.00104685
0.00104597
0.00104323
0.00104031
0.00103762
0.00103508
0.00103264
0.00103031
0.00102822
0.00102639
0.0010248
0.00102339
0.00102217
0.00102113
0.0010203
0.00101963
0.00101907
0.00101852
0.00101798
0.00101748
0.0010171
0.00101674
0.00101647
0.00101632
0.00101621
0.0010161
0.00101601
0.00101592
0.00101581
0.00101569
0.00101556
0.00101545
0.00101535
0.00101528
0.00101522
0.00101518
0.00101516
0.00101513
0.00101509
0.00101503
0.00101496
0.00101489
0.00101484
0.00101481
0.0010148
0.00101478
0.00101473
0.00101465
0.00101457
0.00101452
0.00101452
0.00101453
0.00101447
0.00101435
0.0010142
0.00101406
0.00101395
0.00101388
0.00101383
0.0010138
0.00101379
0.00101378
0.00101372
0.00101364
0.00101362
0.00101372
0.00101379
0.00101363
0.00101333
0.00101323
0.00101329
0.00101326
0.00101306
0.00101301
0.00101311
0.00101332
0.00101548
0.00102452
0.0010478
0.00108412
0.00109313
0.0010411
0.00114544
0.00188702
0.00437814
0.0102992
0.0207065
0.033595
0.0434301
0.0502833
0.0580783
0.0665271
0.0727901
0.0751395
0.0744235
0.0717971
0.067328
0.0614562
0.0550234
0.0488732
0.0435743
0.0393077
0.0359398
0.0332513
0.0310104
0.0290485
0.0273404
0.0259137
0.0247381
0.0237988
0.0230347
0.0222743
0.0215206
0.0207557
0.0198552
0.0189347
0.0181794
0.0176132
0.0171621
0.0166514
0.0160461
0.0155413
0.0152748
0.0151407
0.0148388
0.0142117
0.0134293
0.0128491
0.0126655
0.0126976
0.0125884
0.0121304
0.0114079
0.0106783
0.0101217
0.00972717
0.00944849
0.00931813
0.00936726
0.00957229
0.00990355
0.0104215
0.0112004
0.0122554
0.0133393
0.0141392
0.0147014
0.0153222
0.0162872
0.0178037
0.0200353
0.0228991
0.0258865
0.0280679
0.0291783
0.0300528
0.0318552
0.0346881
0.0380113
0.0418054
0.0464866
0.0517577
0.0574611
0.0647887
0.0717707
0.0801005
0.0900634
0.0979313
0.10369
0.110296
0.117413
0.119745
0.118884
0.116057
0.110455
0.107155
0.102738
0.090507
0.0763857
0.0557936
0.0374781
0.0216023
0.0134157
0.00903773
0.00659232
0.00535067
0.00489457
0.00496389
0.00556728
0.00673631
0.00891845
0.0132569
0.0180188
0.0240132
0.0275408
0.0281707
0.0259
0.0211015
0.0137492
0.00864895
0.0054631
0.00383341
0.00293113
0.00241911
0.00217954
0.00213551
0.00221448
0.00233457
0.00243955
0.00255552
0.00268017
0.00289818
0.00307794
0.00324835
0.00300016
0.00253775
0.00226154
0.00211731
0.00190611
0.0017962
0.00176565
0.00171353
0.00165679
0.00163
0.00160469
0.00160043