/*--------------------------------*- C++ -*----------------------------------*\
| =========                 |                                                 |
| \\      /  F ield         | OpenFOAM: The Open Source CFD Toolbox           |
|  \\    /   O peration     | Version:  v2006                                 |
|   \\  /    A nd           | Website:  www.openfoam.com                      |
|    \\/     M anipulation  |                                                 |
\*---------------------------------------------------------------------------*/
FoamFile
{
    version     2.0;
    format      ascii;
    class       volScalarField;
    location    "4.7";
    object      p;
}
// * * * * * * * * * * * * * * * * * * * * * * * * * * * * * * * * * * * * * //

dimensions      [1 -1 -2 0 0 0 0];


internalField   nonuniform List<scalar> 
33000
(
8496.87
8499.67
8502.35
8504.45
8506.22
8508.12
8510.07
8511.69
8512.85
8513.39
8512.14
8510.15
8509.21
8510.85
8513.09
8514.84
8515.6
8516.04
8516.12
8515.98
8515.68
8515.23
8514.66
8513.98
8513.18
8512.23
8511.14
8509.98
8508.71
8507.3
8505.73
8504.07
8502.27
8500.42
8498.45
8496.3
8494.05
8491.64
8489.2
8486.65
8483.94
8481.06
8478.11
8475.01
8471.9
8468.63
8465.2
8461.66
8457.99
8454.22
8450.37
8446.42
8442.31
8438.08
8433.76
8429.36
8424.86
8420.26
8415.59
8410.81
8405.94
8401
8395.99
8390.91
8385.75
8380.53
8375.27
8370.01
8364.8
8359.6
8354.43
8349.42
8344.64
8340.19
8336.3
8333.02
8330.89
8328.33
8313.82
8289.1
8296.11
8282.44
8274.61
8266.78
8257.79
8246.5
8238.61
8229.97
8220.95
8211.52
8202.54
8193.31
8183.96
8175.13
8166.48
8157.99
8151.07
8142.82
8141.14
8130.11
8109.69
8096.86
8082.61
8068.11
8054.16
8038.92
8022.7
8006.49
7990.13
7973.96
7957.4
7940.96
7924.48
7907.83
7891.88
7875.4
7862.56
7844.47
7820.02
7800.83
7780.26
7759.35
7739.1
7718.11
7696.6
7675.46
7654.41
7633.48
7612.85
7592.46
7572.32
7552.57
7533.23
7514.35
7495.96
7478.08
7460.75
7443.97
7427.78
7412.17
7397.17
7382.75
7368.93
7355.7
7343.06
7331
7319.48
7308.51
7298.05
7288.11
7278.64
7269.6
7260.98
7252.75
7244.88
7237.35
7230.13
7223.18
7216.5
7210.09
7203.99
7198.24
7192.84
7187.83
7183.23
7179.04
7175.29
7171.99
7169.15
7166.78
7164.87
7163.43
7162.47
7161.99
7161.99
7162.45
7163.37
7164.75
7166.59
7168.87
7171.58
7174.72
7178.27
7182.22
7186.56
7191.27
7196.33
7201.74
7207.47
7213.53
7219.88
7226.52
7233.42
7240.57
7247.95
7255.56
7263.38
7271.38
7279.57
7287.91
7296.4
7305.01
7313.74
7322.59
7331.53
7340.56
7349.65
7358.79
7367.98
7377.21
7386.47
7395.75
7405.02
7414.3
7423.57
7432.83
7442.06
7451.26
7460.41
7469.51
7478.57
7487.57
7496.51
7505.39
7514.18
7522.9
7531.54
7540.1
7548.57
7556.95
7565.24
7573.42
7581.51
7589.5
7597.39
7605.17
7612.86
7620.43
7627.89
7635.25
7642.5
7649.64
7656.67
7663.59
7670.41
7677.11
7683.71
7690.19
7696.56
7702.83
7708.99
7715.04
7720.98
7726.81
7732.53
7738.15
7743.66
7749.06
7754.36
7759.55
7764.63
7769.61
7774.5
7779.27
7783.95
7788.52
7792.99
7797.36
7801.64
7805.82
7809.9
7813.89
7817.79
7821.59
7825.3
7828.92
7832.46
7835.91
7839.28
7842.57
7845.77
7848.89
7851.94
7854.91
7857.8
7860.62
7863.37
7866.03
7868.61
7871.1
7873.49
7875.8
7878
7880.1
7882.1
7883.98
7885.77
7887.44
7889
7890.44
7891.77
7892.99
7894.09
7895.08
7895.95
7896.7
7897.34
7897.87
7898.29
7898.59
7898.79
7898.88
7898.86
7898.74
7898.52
7898.2
7897.78
7897.27
7896.67
7895.98
7895.21
7894.35
7893.42
7892.41
7891.34
7890.19
7888.99
7887.72
7886.39
7885.01
7883.58
7882.11
7880.59
7879.03
7877.44
7875.82
7874.16
7872.48
7870.78
7869.05
7867.31
7865.55
7863.78
7862.01
7860.22
7858.43
7856.64
7854.86
7853.07
7851.28
7849.51
7847.74
7845.98
7844.23
7842.49
7840.77
7839.07
7837.37
7835.7
7834.05
7832.41
7830.79
7829.2
7827.62
7826.07
7824.54
7823.03
7821.54
7820.08
7818.64
7817.22
7815.83
7814.46
7813.12
7811.8
7810.5
7809.23
7807.98
7806.75
7805.55
7804.37
7803.21
7802.08
7800.97
7799.87
7798.8
7797.76
7796.73
7795.72
7794.74
7793.77
7792.82
7791.89
7790.99
7790.09
7789.22
7788.37
7787.53
7786.71
7785.9
7785.11
7784.34
7783.58
7782.84
7782.11
7781.39
7780.69
7780.01
7779.33
7778.67
7778.02
7777.38
7776.75
7776.14
7775.53
7774.94
7774.35
7773.78
7773.22
7772.66
7772.12
7771.58
7771.06
7770.53
7770.03
7769.54
7769.05
7768.56
7768.1
7767.58
7767.15
7766.78
7766.36
7765.95
7765.52
7765.11
7764.68
7764.26
7763.83
7763.41
7762.98
7762.56
7762.14
7761.73
7761.31
7760.9
7760.49
7760.07
7759.67
7759.3
7758.9
7758.52
7758.12
7757.74
7757.35
7756.97
7756.57
7756.2
7755.81
7755.44
7755.06
7754.7
7754.32
7753.97
7753.63
7753.29
7752.95
7752.66
7752.18
7751.95
7751.75
7751.51
7751.25
7750.98
7750.71
7750.43
7750.14
7749.85
7749.56
7749.27
7748.97
7748.67
7748.38
7748.08
7747.78
7747.48
7747.18
7746.88
7746.58
7746.28
7745.98
7745.68
7745.38
7745.09
7744.79
7744.5
7744.2
7743.91
7743.62
7743.33
7743.04
7742.75
7742.47
7742.18
7741.9
7741.62
7741.34
7741.06
7740.78
7740.5
7740.23
7739.96
7739.69
7739.42
7739.16
7738.89
7738.63
7738.37
7738.11
7737.85
7737.6
7737.35
7737.1
7736.85
7736.6
7736.36
7736.12
7735.88
7735.64
7735.41
7735.17
7734.94
7734.71
7734.49
7734.26
7734.04
7733.82
7733.6
7733.39
7733.18
7732.97
7732.76
7732.55
7732.35
7732.15
7731.95
7731.75
7731.56
7731.36
7731.11
8300.85
8303.6
8306.27
8308.28
8310.06
8311.97
8313.26
8314.21
8313.97
8313.1
8311.68
8309.38
8308.72
8311.54
8315.33
8317.88
8319.42
8320.28
8320.35
8320.17
8319.86
8319.42
8318.84
8318.14
8317.31
8316.37
8315.3
8314.12
8312.89
8311.42
8309.87
8308.25
8306.48
8304.61
8302.58
8300.45
8298.24
8295.81
8293.39
8290.81
8288.03
8285.18
8282.28
8279.14
8276.01
8272.75
8269.31
8265.76
8262.09
8258.32
8254.48
8250.5
8246.4
8242.16
8237.85
8233.48
8228.96
8224.32
8219.63
8214.84
8209.97
8205.03
8199.98
8194.88
8189.7
8184.45
8179.17
8173.85
8168.53
8163.21
8157.88
8152.49
8147.08
8141.67
8136.33
8130.81
8125.13
8119.18
8112.63
8108.77
8106.7
8092.72
8062.93
8070.95
8060.36
8051.82
8043.89
8035.51
8025.92
8014.2
8006.29
7996.5
7987.21
7977.95
7968.86
7959.3
7950.42
7941.68
7932.45
7923.38
7913.1
7909.33
7895.55
7872.24
7856.66
7840.3
7825.5
7810.13
7795.58
7779.63
7762.32
7745.14
7728.03
7710.88
7694.09
7676.96
7659.95
7642.41
7623.59
7609.55
7589.53
7563.28
7542.38
7521.08
7500.06
7479.72
7458.73
7437.42
7416.59
7396.08
7375.91
7356.16
7336.79
7317.82
7299.38
7281.45
7264.11
7247.31
7231.11
7215.49
7200.46
7186.02
7172.19
7158.95
7146.3
7134.21
7122.68
7111.7
7101.24
7091.28
7081.79
7072.74
7064.11
7055.87
7048
7040.45
7033.21
7026.25
7019.56
7013.14
7007.04
7001.27
6995.86
6990.84
6986.23
6982.04
6978.28
6974.98
6972.14
6969.77
6967.86
6966.43
6965.48
6965.01
6965.01
6965.49
6966.43
6967.83
6969.68
6971.98
6974.71
6977.86
6981.43
6985.4
6989.76
6994.49
6999.58
7005.01
7010.76
7016.83
7023.21
7029.87
7036.79
7043.97
7051.38
7059.01
7066.84
7074.86
7083.07
7091.43
7099.93
7108.57
7117.32
7126.19
7135.14
7144.18
7153.28
7162.44
7171.65
7180.9
7190.17
7199.45
7208.74
7218.03
7227.31
7236.58
7245.82
7255.02
7264.18
7273.3
7282.36
7291.37
7300.32
7309.19
7318
7326.72
7335.37
7343.93
7352.4
7360.78
7369.07
7377.26
7385.36
7393.35
7401.24
7409.03
7416.71
7424.28
7431.75
7439.11
7446.36
7453.5
7460.53
7467.46
7474.27
7480.98
7487.57
7494.06
7500.43
7506.7
7512.86
7518.91
7524.85
7530.68
7536.41
7542.03
7547.54
7552.94
7558.24
7563.43
7568.52
7573.51
7578.39
7583.17
7587.85
7592.42
7596.9
7601.27
7605.55
7609.74
7613.82
7617.82
7621.72
7625.52
7629.24
7632.87
7636.41
7639.86
7643.24
7646.52
7649.73
7652.86
7655.91
7658.88
7661.78
7664.6
7667.35
7670.02
7672.6
7675.1
7677.5
7679.8
7682.01
7684.11
7686.11
7688
7689.79
7691.46
7693.02
7694.46
7695.8
7697.01
7698.11
7699.1
7699.97
7700.72
7701.36
7701.89
7702.3
7702.6
7702.79
7702.88
7702.86
7702.73
7702.5
7702.18
7701.76
7701.24
7700.63
7699.94
7699.16
7698.3
7697.36
7696.35
7695.27
7694.12
7692.9
7691.63
7690.3
7688.91
7687.48
7686
7684.47
7682.91
7681.31
7679.68
7678.02
7676.34
7674.63
7672.9
7671.15
7669.39
7667.62
7665.83
7664.05
7662.25
7660.46
7658.67
7656.88
7655.09
7653.31
7651.54
7649.78
7648.02
7646.29
7644.56
7642.85
7641.16
7639.49
7637.83
7636.19
7634.57
7632.97
7631.4
7629.84
7628.31
7626.8
7625.32
7623.85
7622.41
7621
7619.61
7618.24
7616.89
7615.57
7614.28
7613
7611.75
7610.53
7609.32
7608.14
7606.99
7605.85
7604.74
7603.65
7602.58
7601.53
7600.51
7599.5
7598.51
7597.55
7596.6
7595.67
7594.76
7593.87
7593
7592.15
7591.31
7590.49
7589.68
7588.89
7588.12
7587.36
7586.62
7585.89
7585.18
7584.48
7583.79
7583.12
7582.46
7581.81
7581.17
7580.54
7579.93
7579.32
7578.73
7578.14
7577.57
7577
7576.45
7575.9
7575.37
7574.85
7574.34
7573.82
7573.32
7572.77
7572.3
7571.92
7571.46
7571.05
7570.62
7570.19
7569.77
7569.34
7568.92
7568.48
7568.06
7567.63
7567.21
7566.78
7566.36
7565.94
7565.52
7565.09
7564.68
7564.29
7563.89
7563.49
7563.11
7562.7
7562.32
7561.92
7561.53
7561.15
7560.76
7560.38
7559.99
7559.62
7559.21
7558.86
7558.49
7558.15
7557.77
7557.45
7556.91
7556.64
7556.42
7556.16
7555.89
7555.62
7555.36
7555.08
7554.81
7554.53
7554.24
7553.95
7553.66
7553.37
7553.07
7552.77
7552.48
7552.18
7551.88
7551.58
7551.28
7550.98
7550.68
7550.38
7550.08
7549.78
7549.48
7549.18
7548.88
7548.59
7548.29
7548
7547.71
7547.42
7547.12
7546.84
7546.55
7546.26
7545.98
7545.69
7545.41
7545.13
7544.85
7544.58
7544.3
7544.03
7543.75
7543.48
7543.22
7542.95
7542.69
7542.42
7542.16
7541.91
7541.65
7541.4
7541.14
7540.89
7540.64
7540.4
7540.15
7539.91
7539.67
7539.44
7539.2
7538.97
7538.74
7538.51
7538.28
7538.06
7537.84
7537.62
7537.4
7537.18
7536.97
7536.76
7536.55
7536.34
7536.14
7535.94
7535.74
7535.54
7535.35
7535.16
7534.91
8105.13
8107.84
8110.51
8112.44
8114.09
8115.76
8117.36
8118.48
8118.72
8118.11
8117.7
8117
8117.46
8118.53
8120.45
8122.08
8123.4
8124.05
8124.27
8124.23
8124.01
8123.64
8123.12
8122.45
8121.66
8120.74
8119.69
8118.49
8117.25
8115.9
8114.32
8112.66
8110.92
8109.05
8107.02
8104.89
8102.68
8100.3
8097.78
8095.2
8092.42
8089.63
8086.74
8083.59
8080.38
8077.14
8073.68
8070.13
8066.51
8062.72
8058.84
8054.85
8050.76
8046.53
8042.2
8037.8
8033.26
8028.65
8023.9
8019.09
8014.23
8009.22
8004.13
7999
7993.77
7988.47
7983.13
7977.73
7972.28
7966.79
7961.28
7955.7
7950.1
7944.42
7938.62
7932.63
7926.44
7920.04
7913.55
7906.72
7899.4
7891.74
7888.11
7886.55
7871.91
7838.85
7844.21
7839.03
7829.31
7819.58
7811.14
7801.4
7789.3
7781.01
7771.06
7761.43
7752.14
7742.25
7732.3
7722.02
7710.21
7698.74
7687.31
7676.15
7671.05
7656.11
7631.19
7614.13
7596.92
7581.25
7565.08
7549.87
7533.03
7515.19
7497.42
7479.61
7461.88
7443.64
7424.42
7405.25
7386.09
7366.44
7351.6
7330.86
7304.22
7282.89
7261.61
7240.71
7220.55
7200.05
7179.42
7159.45
7139.97
7120.94
7102.45
7084.48
7067.07
7050.21
7033.95
7018.29
7003.21
6988.74
6974.86
6961.59
6948.89
6936.78
6925.21
6914.2
6903.7
6893.71
6884.18
6875.1
6866.44
6858.17
6850.27
6842.69
6835.43
6828.45
6821.74
6815.33
6809.22
6803.45
6798.03
6793.01
6788.39
6784.19
6780.43
6777.13
6774.29
6771.92
6770.03
6768.61
6767.68
6767.23
6767.25
6767.75
6768.72
6770.15
6772.03
6774.36
6777.13
6780.32
6783.94
6787.95
6792.35
6797.12
6802.25
6807.72
6813.53
6819.64
6826.06
6832.76
6839.73
6846.95
6854.41
6862.08
6869.96
6878.02
6886.26
6894.66
6903.2
6911.88
6920.67
6929.56
6938.55
6947.61
6956.75
6965.94
6975.18
6984.45
6993.75
7003.05
7012.37
7021.68
7030.98
7040.27
7049.52
7058.75
7067.92
7077.06
7086.14
7095.16
7104.12
7113
7121.82
7130.56
7139.21
7147.78
7156.26
7164.64
7172.94
7181.14
7189.24
7197.23
7205.13
7212.92
7220.61
7228.18
7235.65
7243.01
7250.27
7257.41
7264.45
7271.38
7278.19
7284.9
7291.49
7297.98
7304.36
7310.63
7316.79
7322.85
7328.79
7334.62
7340.36
7345.98
7351.5
7356.9
7362.21
7367.4
7372.5
7377.49
7382.38
7387.17
7391.85
7396.43
7400.92
7405.3
7409.59
7413.78
7417.87
7421.87
7425.78
7429.6
7433.32
7436.96
7440.51
7443.97
7447.35
7450.65
7453.86
7457
7460.06
7463.04
7465.95
7468.78
7471.54
7474.21
7476.8
7479.3
7481.71
7484.02
7486.23
7488.34
7490.35
7492.24
7494.03
7495.7
7497.26
7498.71
7500.04
7501.26
7502.36
7503.34
7504.21
7504.96
7505.59
7506.11
7506.52
7506.82
7507
7507.08
7507.05
7506.91
7506.68
7506.34
7505.91
7505.38
7504.77
7504.06
7503.27
7502.4
7501.45
7500.43
7499.33
7498.17
7496.94
7495.65
7494.31
7492.91
7491.47
7489.97
7488.44
7486.87
7485.26
7483.61
7481.94
7480.25
7478.53
7476.79
7475.03
7473.26
7471.48
7469.69
7467.89
7466.09
7464.29
7462.49
7460.69
7458.9
7457.11
7455.34
7453.57
7451.81
7450.07
7448.34
7446.63
7444.93
7443.25
7441.59
7439.95
7438.33
7436.73
7435.15
7433.6
7432.06
7430.55
7429.07
7427.6
7426.16
7424.74
7423.35
7421.98
7420.64
7419.32
7418.02
7416.75
7415.5
7414.27
7413.07
7411.89
7410.73
7409.6
7408.49
7407.4
7406.33
7405.28
7404.26
7403.25
7402.27
7401.3
7400.35
7399.43
7398.52
7397.63
7396.76
7395.9
7395.07
7394.25
7393.44
7392.66
7391.88
7391.13
7390.39
7389.66
7388.94
7388.25
7387.56
7386.89
7386.22
7385.58
7384.94
7384.32
7383.7
7383.1
7382.5
7381.92
7381.34
7380.78
7380.23
7379.7
7379.14
7378.63
7378.04
7377.55
7377.15
7376.68
7376.24
7375.78
7375.33
7374.89
7374.45
7374.01
7373.58
7373.15
7372.72
7372.3
7371.86
7371.44
7371
7370.59
7370.14
7369.73
7369.33
7368.93
7368.52
7368.12
7367.71
7367.31
7366.91
7366.51
7366.12
7365.72
7365.35
7364.93
7364.56
7364.14
7363.78
7363.39
7363.04
7362.64
7362.31
7361.74
7361.46
7361.23
7360.94
7360.65
7360.36
7360.06
7359.77
7359.49
7359.2
7358.92
7358.64
7358.35
7358.06
7357.77
7357.47
7357.18
7356.88
7356.58
7356.28
7355.98
7355.68
7355.38
7355.08
7354.78
7354.48
7354.17
7353.87
7353.57
7353.28
7352.98
7352.68
7352.38
7352.09
7351.79
7351.5
7351.21
7350.92
7350.63
7350.34
7350.05
7349.77
7349.48
7349.2
7348.92
7348.64
7348.37
7348.09
7347.82
7347.55
7347.28
7347.01
7346.74
7346.48
7346.21
7345.95
7345.7
7345.44
7345.18
7344.93
7344.68
7344.43
7344.19
7343.94
7343.7
7343.46
7343.22
7342.99
7342.76
7342.53
7342.3
7342.07
7341.85
7341.62
7341.4
7341.19
7340.97
7340.76
7340.55
7340.34
7340.13
7339.93
7339.73
7339.53
7339.33
7339.14
7338.94
7338.69
7909.68
7912.37
7915
7916.89
7918.44
7920.04
7921.6
7922.65
7923.12
7923.59
7924.14
7924.64
7925.29
7926.08
7926.99
7927.81
7928.45
7928.83
7928.96
7928.9
7928.68
7928.32
7927.81
7927.14
7926.35
7925.45
7924.43
7923.27
7921.95
7920.61
7919.07
7917.39
7915.63
7913.78
7911.75
7909.62
7907.39
7905.04
7902.51
7899.92
7897.14
7894.36
7891.44
7888.32
7885.07
7881.79
7878.33
7874.8
7871.17
7867.38
7863.48
7859.47
7855.37
7851.15
7846.81
7842.38
7837.84
7833.2
7828.41
7823.56
7818.66
7813.61
7808.48
7803.29
7798.01
7792.63
7787.18
7781.67
7776.08
7770.44
7764.72
7758.91
7752.99
7746.99
7740.86
7734.57
7728.08
7721.4
7714.58
7707.37
7700.06
7692.62
7684.69
7675.78
7666.53
7660.74
7658.87
7654.77
7639.42
7607.87
7614.63
7604.09
7593.84
7584.87
7574.33
7561.67
7552.66
7541.97
7531.26
7520.69
7509.21
7497.61
7485.61
7471.42
7458.73
7444.28
7432.69
7419.82
7414.1
7397.82
7371.47
7353.12
7334.91
7317.69
7301.12
7283.11
7264.32
7245.28
7226.15
7207.07
7187.62
7167.27
7147.12
7127.14
7106.96
7091.54
7070.54
7044.34
7023.2
7002.61
6982.31
6962.76
6943.19
6923.63
6904.94
6886.74
6869.4
6852.47
6836.2
6820.46
6805.34
6790.79
6776.87
6763.51
6750.76
6738.58
6726.97
6715.89
6705.34
6695.27
6685.69
6676.56
6667.85
6659.53
6651.57
6643.96
6636.66
6629.66
6622.95
6616.54
6610.43
6604.67
6599.27
6594.24
6589.62
6585.43
6581.68
6578.39
6575.56
6573.21
6571.33
6569.94
6569.03
6568.61
6568.67
6569.21
6570.22
6571.7
6573.63
6576.01
6578.84
6582.1
6585.78
6589.85
6594.31
6599.14
6604.34
6609.88
6615.75
6621.94
6628.43
6635.19
6642.23
6649.51
6657.04
6664.78
6672.72
6680.84
6689.13
6697.59
6706.2
6714.93
6723.77
6732.71
6741.75
6750.86
6760.05
6769.29
6778.57
6787.88
6797.21
6806.55
6815.91
6825.26
6834.59
6843.9
6853.18
6862.43
6871.63
6880.79
6889.9
6898.94
6907.91
6916.81
6925.64
6934.4
6943.07
6951.65
6960.14
6968.54
6976.84
6985.04
6993.15
7001.16
7009.06
7016.86
7024.55
7032.13
7039.6
7046.97
7054.23
7061.38
7068.42
7075.35
7082.17
7088.87
7095.47
7101.97
7108.35
7114.63
7120.79
7126.85
7132.8
7138.64
7144.38
7150.01
7155.53
7160.95
7166.26
7171.46
7176.57
7181.57
7186.47
7191.26
7195.96
7200.55
7205.05
7209.44
7213.74
7217.94
7222.05
7226.06
7229.98
7233.81
7237.56
7241.21
7244.77
7248.25
7251.64
7254.95
7258.18
7261.33
7264.41
7267.4
7270.32
7273.17
7275.93
7278.62
7281.21
7283.72
7286.14
7288.46
7290.68
7292.79
7294.8
7296.71
7298.5
7300.17
7301.74
7303.19
7304.52
7305.73
7306.83
7307.81
7308.67
7309.42
7310.04
7310.56
7310.95
7311.24
7311.41
7311.48
7311.44
7311.29
7311.04
7310.69
7310.24
7309.7
7309.06
7308.34
7307.53
7306.64
7305.68
7304.64
7303.52
7302.34
7301.1
7299.79
7298.43
7297.01
7295.55
7294.04
7292.49
7290.89
7289.27
7287.61
7285.92
7284.21
7282.47
7280.72
7278.95
7277.16
7275.37
7273.57
7271.76
7269.95
7268.14
7266.32
7264.52
7262.71
7260.92
7259.13
7257.36
7255.6
7253.85
7252.11
7250.39
7248.69
7247.01
7245.34
7243.7
7242.07
7240.47
7238.89
7237.33
7235.79
7234.28
7232.79
7231.32
7229.88
7228.46
7227.07
7225.7
7224.36
7223.03
7221.74
7220.46
7219.22
7217.99
7216.79
7215.61
7214.45
7213.32
7212.21
7211.12
7210.05
7209.01
7207.98
7206.98
7205.99
7205.03
7204.09
7203.16
7202.25
7201.37
7200.49
7199.64
7198.81
7197.99
7197.18
7196.4
7195.63
7194.87
7194.13
7193.41
7192.69
7192
7191.31
7190.64
7189.99
7189.34
7188.71
7188.07
7187.47
7186.85
7186.26
7185.69
7185.13
7184.54
7184
7183.38
7182.86
7182.45
7181.96
7181.5
7181.02
7180.55
7180.08
7179.63
7179.17
7178.73
7178.29
7177.85
7177.41
7176.97
7176.54
7176.1
7175.67
7175.21
7174.8
7174.4
7173.99
7173.57
7173.16
7172.73
7172.33
7171.91
7171.52
7171.1
7170.71
7170.29
7169.91
7169.48
7169.1
7168.73
7168.35
7167.99
7167.57
7167.23
7166.63
7166.32
7166.08
7165.78
7165.47
7165.16
7164.84
7164.53
7164.23
7163.94
7163.65
7163.35
7163.06
7162.77
7162.48
7162.18
7161.89
7161.59
7161.29
7160.99
7160.69
7160.39
7160.09
7159.79
7159.48
7159.18
7158.88
7158.58
7158.27
7157.97
7157.67
7157.37
7157.07
7156.77
7156.47
7156.18
7155.88
7155.59
7155.29
7155
7154.71
7154.42
7154.13
7153.84
7153.56
7153.27
7152.99
7152.71
7152.43
7152.15
7151.88
7151.6
7151.33
7151.06
7150.79
7150.53
7150.26
7150
7149.74
7149.48
7149.22
7148.97
7148.72
7148.47
7148.22
7147.97
7147.73
7147.49
7147.25
7147.01
7146.77
7146.54
7146.31
7146.08
7145.85
7145.63
7145.41
7145.19
7144.97
7144.75
7144.54
7144.33
7144.12
7143.92
7143.71
7143.51
7143.31
7143.11
7142.92
7142.73
7142.48
7714.57
7717.24
7719.87
7721.73
7723.28
7724.88
7726.35
7727.46
7728.22
7729.14
7730.21
7730.93
7731.43
7731.93
7732.55
7733.1
7733.53
7733.79
7733.88
7733.81
7733.6
7733.24
7732.73
7732.09
7731.32
7730.43
7729.42
7728.26
7726.94
7725.54
7724.05
7722.4
7720.64
7718.77
7716.74
7714.6
7712.37
7710
7707.49
7704.87
7702.12
7699.32
7696.36
7693.25
7690.02
7686.71
7683.27
7679.73
7676.06
7672.27
7668.36
7664.34
7660.22
7655.99
7651.65
7647.19
7642.62
7637.94
7633.14
7628.26
7623.28
7618.17
7613
7607.76
7602.39
7596.92
7591.37
7585.74
7580.02
7574.2
7568.28
7562.27
7556.15
7549.92
7543.55
7537.02
7530.29
7523.37
7516.27
7508.98
7501.52
7493.85
7485.84
7477.97
7470.07
7462.23
7454.08
7445.21
7436.73
7432.04
7429.66
7414.22
7380.39
7387.31
7376.31
7365.18
7355.59
7344.43
7330.91
7320.75
7308.55
7296.52
7284.43
7271.71
7258.93
7245.53
7230.45
7216.51
7201.84
7188.05
7174.51
7167.25
7149.95
7122.64
7103.4
7084.43
7066.11
7048.17
7028.83
7008.71
6988.53
6968.53
6948.66
6928.52
6907.59
6887.15
6866.82
6846.63
6830.84
6810.13
6784.93
6764.45
6744.97
6725.78
6707.15
6689.19
6671.63
6654.34
6637.84
6622.06
6606.79
6592.16
6578.1
6564.65
6551.77
6539.52
6527.79
6516.63
6505.97
6495.84
6486.16
6476.96
6468.16
6459.78
6451.76
6444.1
6436.76
6429.74
6423.03
6416.63
6410.55
6404.81
6399.43
6394.44
6389.84
6385.67
6381.95
6378.68
6375.88
6373.55
6371.71
6370.36
6369.5
6369.13
6369.24
6369.84
6370.91
6372.45
6374.46
6376.92
6379.83
6383.17
6386.92
6391.08
6395.62
6400.55
6405.83
6411.47
6417.45
6423.73
6430.31
6437.16
6444.28
6451.65
6459.26
6467.09
6475.12
6483.33
6491.7
6500.24
6508.92
6517.72
6526.64
6535.65
6544.76
6553.94
6563.18
6572.48
6581.81
6591.18
6600.56
6609.96
6619.36
6628.75
6638.13
6647.47
6656.79
6666.08
6675.32
6684.51
6693.64
6702.71
6711.7
6720.63
6729.48
6738.26
6746.95
6755.55
6764.05
6772.46
6780.78
6788.99
6797.11
6805.13
6813.04
6820.84
6828.54
6836.13
6843.61
6850.98
6858.25
6865.4
6872.45
6879.38
6886.2
6892.92
6899.52
6906.02
6912.41
6918.69
6924.86
6930.93
6936.88
6942.73
6948.48
6954.11
6959.65
6965.08
6970.4
6975.62
6980.74
6985.75
6990.66
6995.47
7000.18
7004.79
7009.3
7013.71
7018.03
7022.25
7026.37
7030.4
7034.34
7038.19
7041.95
7045.62
7049.21
7052.7
7056.12
7059.45
7062.7
7065.87
7068.96
7071.98
7074.91
7077.77
7080.55
7083.25
7085.86
7088.38
7090.8
7093.13
7095.36
7097.48
7099.5
7101.41
7103.2
7104.88
7106.45
7107.9
7109.23
7110.44
7111.53
7112.51
7113.36
7114.1
7114.72
7115.22
7115.61
7115.88
7116.04
7116.09
7116.03
7115.86
7115.59
7115.22
7114.75
7114.19
7113.53
7112.78
7111.95
7111.04
7110.05
7108.98
7107.85
7106.64
7105.37
7104.04
7102.66
7101.22
7099.73
7098.19
7096.62
7095
7093.35
7091.67
7089.96
7088.23
7086.47
7084.7
7082.91
7081.1
7079.29
7077.47
7075.65
7073.82
7071.99
7070.17
7068.35
7066.53
7064.73
7062.93
7061.14
7059.37
7057.61
7055.87
7054.14
7052.43
7050.74
7049.07
7047.42
7045.79
7044.18
7042.59
7041.03
7039.49
7037.98
7036.49
7035.02
7033.57
7032.15
7030.76
7029.39
7028.04
7026.72
7025.43
7024.15
7022.9
7021.68
7020.48
7019.3
7018.14
7017.01
7015.9
7014.82
7013.75
7012.71
7011.68
7010.68
7009.7
7008.74
7007.79
7006.87
7005.97
7005.08
7004.21
7003.36
7002.53
7001.71
7000.91
7000.12
6999.36
6998.6
6997.86
6997.14
6996.43
6995.74
6995.05
6994.39
6993.72
6993.08
6992.44
6991.82
6991.22
6990.63
6990.01
6989.44
6988.78
6988.24
6987.82
6987.3
6986.83
6986.32
6985.84
6985.34
6984.88
6984.4
6983.94
6983.47
6983.02
6982.57
6982.12
6981.67
6981.22
6980.76
6980.32
6979.93
6979.5
6979.09
6978.66
6978.25
6977.81
6977.4
6976.97
6976.57
6976.14
6975.74
6975.31
6974.92
6974.48
6974.09
6973.72
6973.32
6972.97
6972.53
6972.17
6971.55
6971.25
6970.99
6970.68
6970.36
6970.04
6969.7
6969.37
6969.06
6968.75
6968.44
6968.13
6967.83
6967.52
6967.22
6966.92
6966.62
6966.32
6966.02
6965.71
6965.41
6965.11
6964.81
6964.5
6964.2
6963.89
6963.59
6963.29
6962.98
6962.68
6962.37
6962.07
6961.77
6961.47
6961.16
6960.86
6960.56
6960.27
6959.97
6959.67
6959.37
6959.08
6958.79
6958.5
6958.2
6957.92
6957.63
6957.34
6957.06
6956.77
6956.49
6956.21
6955.94
6955.66
6955.39
6955.11
6954.84
6954.57
6954.31
6954.04
6953.78
6953.52
6953.26
6953
6952.75
6952.5
6952.25
6952
6951.75
6951.51
6951.26
6951.02
6950.79
6950.55
6950.32
6950.09
6949.86
6949.63
6949.41
6949.18
6948.96
6948.75
6948.53
6948.32
6948.11
6947.9
6947.69
6947.49
6947.29
6947.09
6946.89
6946.7
6946.5
6946.25
7519.79
7522.47
7525.09
7526.95
7528.5
7530.1
7531.54
7532.71
7533.8
7534.92
7535.89
7536.66
7537.27
7537.83
7538.32
7538.72
7539.01
7539.19
7539.22
7539.12
7538.89
7538.52
7538
7537.36
7536.6
7535.71
7534.7
7533.52
7532.24
7530.83
7529.32
7527.67
7525.93
7524.02
7521.99
7519.87
7517.63
7515.25
7512.73
7510.09
7507.37
7504.56
7501.57
7498.45
7495.23
7491.88
7488.45
7484.92
7481.22
7477.42
7473.5
7469.46
7465.31
7461.07
7456.71
7452.21
7447.62
7442.92
7438.09
7433.17
7428.13
7422.95
7417.72
7412.4
7406.94
7401.39
7395.74
7389.99
7384.13
7378.15
7372.07
7365.88
7359.56
7353.11
7346.5
7339.75
7332.82
7325.69
7318.39
7310.96
7303.34
7295.56
7287.64
7279.55
7271.27
7262.73
7254.19
7245.91
7237.59
7228.73
7219.3
7209.6
7204.1
7201.21
7185.21
7150.93
7156.66
7145.2
7132.73
7122.04
7109.81
7095.03
7083.49
7069.81
7056.61
7043
7029.39
7015.21
7001.3
6986.7
6970.95
6955.32
6940.03
6925.2
6916.38
6897.92
6869.52
6849.16
6829.37
6809.96
6790.85
6770.57
6749.66
6728.92
6708.46
6688.26
6667.93
6646.94
6626.56
6606.36
6586.53
6570.72
6550.68
6527.08
6507.7
6488.95
6472.39
6455.24
6438.91
6422.91
6407.37
6392.53
6378.43
6364.8
6351.82
6339.39
6327.57
6316.25
6305.5
6295.22
6285.45
6276.13
6267.26
6258.78
6250.7
6242.98
6235.61
6228.58
6221.88
6215.5
6209.45
6203.75
6198.41
6193.46
6188.92
6184.8
6181.13
6177.91
6175.16
6172.88
6171.1
6169.81
6169.02
6168.72
6168.91
6169.59
6170.74
6172.38
6174.48
6177.04
6180.06
6183.5
6187.36
6191.63
6196.29
6201.33
6206.73
6212.49
6218.58
6224.98
6231.68
6238.65
6245.89
6253.37
6261.09
6269.03
6277.16
6285.48
6293.96
6302.59
6311.36
6320.26
6329.27
6338.38
6347.57
6356.83
6366.15
6375.52
6384.92
6394.35
6403.8
6413.26
6422.72
6432.17
6441.6
6451
6460.36
6469.69
6478.97
6488.2
6497.37
6506.47
6515.5
6524.46
6533.34
6542.14
6550.85
6559.47
6567.99
6576.43
6584.76
6592.99
6601.12
6609.14
6617.07
6624.88
6632.59
6640.18
6647.68
6655.05
6662.33
6669.49
6676.54
6683.48
6690.31
6697.03
6703.64
6710.15
6716.54
6722.83
6729.01
6735.08
6741.05
6746.91
6752.66
6758.31
6763.86
6769.3
6774.64
6779.87
6785
6790.03
6794.96
6799.79
6804.52
6809.15
6813.68
6818.12
6822.46
6826.7
6830.85
6834.9
6838.87
6842.74
6846.53
6850.22
6853.83
6857.36
6860.8
6864.15
6867.43
6870.63
6873.74
6876.78
6879.74
6882.61
6885.41
6888.12
6890.74
6893.27
6895.71
6898.05
6900.28
6902.42
6904.44
6906.35
6908.15
6909.84
6911.41
6912.85
6914.18
6915.39
6916.48
6917.45
6918.29
6919.02
6919.62
6920.11
6920.48
6920.74
6920.88
6920.91
6920.82
6920.64
6920.34
6919.94
6919.45
6918.86
6918.17
6917.4
6916.54
6915.59
6914.57
6913.47
6912.3
6911.07
6909.77
6908.4
6906.99
6905.52
6904
6902.43
6900.83
6899.18
6897.5
6895.79
6894.06
6892.3
6890.52
6888.72
6886.9
6885.08
6883.24
6881.4
6879.56
6877.71
6875.86
6874.02
6872.18
6870.35
6868.53
6866.72
6864.92
6863.13
6861.36
6859.61
6857.87
6856.15
6854.45
6852.78
6851.12
6849.48
6847.87
6846.28
6844.71
6843.17
6841.65
6840.15
6838.68
6837.24
6835.82
6834.42
6833.05
6831.7
6830.38
6829.09
6827.81
6826.56
6825.34
6824.14
6822.96
6821.81
6820.68
6819.57
6818.49
6817.42
6816.38
6815.36
6814.36
6813.38
6812.42
6811.48
6810.56
6809.65
6808.77
6807.9
6807.06
6806.22
6805.41
6804.61
6803.83
6803.06
6802.31
6801.57
6800.85
6800.14
6799.45
6798.76
6798.1
6797.47
6796.83
6796.22
6795.56
6794.96
6794.26
6793.7
6793.26
6792.72
6792.23
6791.7
6791.19
6790.68
6790.2
6789.69
6789.22
6788.73
6788.26
6787.79
6787.33
6786.86
6786.4
6785.92
6785.47
6785.08
6784.64
6784.23
6783.78
6783.36
6782.92
6782.5
6782.06
6781.65
6781.21
6780.81
6780.36
6779.96
6779.5
6779.11
6778.7
6778.32
6777.87
6777.51
6776.87
6776.54
6776.29
6775.99
6775.66
6775.32
6774.98
6774.62
6774.28
6773.95
6773.62
6773.3
6772.97
6772.65
6772.33
6772.02
6771.7
6771.39
6771.08
6770.77
6770.46
6770.16
6769.85
6769.54
6769.24
6768.93
6768.62
6768.32
6768.01
6767.7
6767.4
6767.09
6766.78
6766.48
6766.17
6765.87
6765.56
6765.26
6764.96
6764.65
6764.35
6764.05
6763.75
6763.46
6763.16
6762.87
6762.57
6762.28
6761.99
6761.7
6761.41
6761.12
6760.84
6760.55
6760.27
6759.99
6759.71
6759.44
6759.16
6758.89
6758.62
6758.35
6758.08
6757.82
6757.55
6757.29
6757.03
6756.78
6756.52
6756.27
6756.02
6755.77
6755.52
6755.28
6755.04
6754.8
6754.56
6754.32
6754.09
6753.86
6753.63
6753.4
6753.18
6752.96
6752.74
6752.52
6752.3
6752.09
6751.88
6751.67
6751.46
6751.26
6751.06
6750.86
6750.66
6750.47
6750.28
6750.03
7325.37
7328.05
7330.67
7332.53
7334.09
7335.71
7337.13
7338.35
7339.52
7340.68
7341.57
7342.37
7343.05
7343.63
7344.11
7344.47
7344.74
7344.87
7344.88
7344.76
7344.52
7344.12
7343.59
7342.94
7342.18
7341.29
7340.26
7339.09
7337.83
7336.44
7334.9
7333.22
7331.48
7329.57
7327.53
7325.42
7323.17
7320.78
7318.27
7315.62
7312.87
7310.08
7307.1
7303.96
7300.73
7297.35
7293.88
7290.39
7286.68
7282.85
7278.91
7274.86
7270.68
7266.41
7262.02
7257.51
7252.87
7248.13
7243.27
7238.29
7233.2
7227.99
7222.69
7217.26
7211.72
7206.07
7200.31
7194.44
7188.44
7182.32
7176.09
7169.73
7163.24
7156.59
7149.79
7142.84
7135.72
7128.41
7120.95
7113.34
7105.54
7097.58
7089.46
7081.14
7072.69
7064.16
7055.54
7046.72
7037.62
7028.19
7019.04
7010
7000.69
6990.43
6979.68
6973.3
6969.6
6953.31
6918.95
6922.91
6910.37
6896.62
6884.8
6871.5
6855.73
6842.87
6828.19
6813.75
6799.34
6784.65
6769.43
6754.33
6738.56
6721.46
6704.75
6687.98
6671.86
6661.27
6641.72
6612.31
6591.05
6570.72
6550.49
6530.65
6509.83
6488.61
6467.75
6447.19
6427
6406.86
6386.12
6366.4
6345.89
6327.38
6309.35
6293.98
6276.02
6255.38
6238.33
6222.83
6207.13
6192.2
6177.78
6163.9
6150.65
6138.13
6126.06
6114.64
6103.68
6093.3
6083.36
6073.94
6064.94
6056.38
6048.22
6040.45
6033.05
6026.01
6019.32
6012.98
6006.98
6001.34
5996.08
5991.21
5986.75
5982.71
5979.11
5975.98
5973.31
5971.12
5969.42
5968.22
5967.53
5967.33
5967.62
5968.41
5969.68
5971.43
5973.66
5976.35
5979.49
5983.07
5987.07
5991.48
5996.28
6001.47
6007.02
6012.92
6019.15
6025.7
6032.54
6039.66
6047.04
6054.66
6062.52
6070.59
6078.85
6087.3
6095.9
6104.66
6113.55
6122.56
6131.68
6140.89
6150.18
6159.54
6168.95
6178.41
6187.89
6197.41
6206.94
6216.48
6226.01
6235.52
6245
6254.46
6263.89
6273.27
6282.6
6291.87
6301.08
6310.22
6319.3
6328.3
6337.21
6346.03
6354.77
6363.41
6371.97
6380.42
6388.78
6397.03
6405.17
6413.21
6421.14
6428.97
6436.69
6444.3
6451.8
6459.18
6466.46
6473.63
6480.69
6487.64
6494.48
6501.21
6507.83
6514.34
6520.74
6527.04
6533.23
6539.32
6545.29
6551.17
6556.94
6562.6
6568.16
6573.62
6578.98
6584.23
6589.38
6594.43
6599.39
6604.24
6608.99
6613.65
6618.21
6622.67
6627.04
6631.31
6635.49
6639.57
6643.57
6647.47
6651.29
6655.02
6658.66
6662.22
6665.69
6669.08
6672.38
6675.61
6678.75
6681.82
6684.8
6687.7
6690.51
6693.24
6695.88
6698.42
6700.87
6703.22
6705.47
6707.61
6709.64
6711.56
6713.36
6715.05
6716.62
6718.07
6719.39
6720.59
6721.67
6722.63
6723.47
6724.18
6724.77
6725.24
6725.59
6725.82
6725.94
6725.94
6725.83
6725.61
6725.29
6724.86
6724.33
6723.71
6722.99
6722.18
6721.28
6720.3
6719.24
6718.1
6716.9
6715.62
6714.28
6712.88
6711.42
6709.92
6708.36
6706.76
6705.12
6703.44
6701.72
6699.98
6698.21
6696.42
6694.61
6692.78
6690.93
6689.08
6687.22
6685.35
6683.48
6681.61
6679.74
6677.88
6676.02
6674.17
6672.33
6670.5
6668.69
6666.89
6665.1
6663.34
6661.59
6659.86
6658.15
6656.46
6654.8
6653.15
6651.53
6649.94
6648.36
6646.82
6645.29
6643.8
6642.32
6640.87
6639.45
6638.05
6636.68
6635.33
6634.01
6632.71
6631.44
6630.19
6628.97
6627.77
6626.6
6625.45
6624.32
6623.21
6622.13
6621.07
6620.03
6619.01
6618.01
6617.04
6616.08
6615.14
6614.22
6613.32
6612.44
6611.58