/*--------------------------------*- C++ -*----------------------------------*\
| =========                 |                                                 |
| \\      /  F ield         | OpenFOAM: The Open Source CFD Toolbox           |
|  \\    /   O peration     | Version:  v2006                                 |
|   \\  /    A nd           | Website:  www.openfoam.com                      |
|    \\/     M anipulation  |                                                 |
\*---------------------------------------------------------------------------*/
FoamFile
{
    version     2.0;
    format      ascii;
    class       surfaceScalarField;
    location    "2.4";
    object      alphaPhi0.water;
}
// * * * * * * * * * * * * * * * * * * * * * * * * * * * * * * * * * * * * * //

dimensions      [0 3 -1 0 0 0 0];
oriented        oriented;


internalField   nonuniform List<scalar> 
65390
(
7.11995e-05
1.15223e-06
7.00948e-05
1.07874e-06
6.89595e-05
1.11972e-06
6.78503e-05
1.10909e-06
6.66928e-05
1.17927e-06
6.54816e-05
1.2273e-06
6.4215e-05
1.26524e-06
6.29323e-05
1.28277e-06
6.16661e-05
1.27669e-06
6.04066e-05
1.27096e-06
5.91045e-05
1.30356e-06
5.77642e-05
1.34054e-06
5.63998e-05
1.36754e-06
5.50257e-05
1.38302e-06
5.37075e-05
1.32605e-06
5.24319e-05
1.27771e-06
5.11631e-05
1.27002e-06
4.98414e-05
1.31637e-06
4.83533e-05
1.47345e-06
4.67645e-05
1.58501e-06
4.53542e-05
1.42005e-06
4.41403e-05
1.21373e-06
4.29507e-05
1.18674e-06
4.15496e-05
1.39311e-06
3.9993e-05
1.54251e-06
3.85389e-05
1.45753e-06
3.7283e-05
1.25261e-06
3.61005e-05
1.18035e-06
3.46192e-05
1.46898e-06
3.31334e-05
1.48911e-06
3.19204e-05
1.20854e-06
3.07917e-05
1.12589e-06
2.95376e-05
1.25132e-06
2.8124e-05
1.40125e-06
2.6654e-05
1.46602e-06
2.55616e-05
1.10073e-06
2.45805e-05
9.78077e-07
2.34193e-05
1.15867e-06
2.21324e-05
1.27814e-06
2.07956e-05
1.3361e-06
1.9536e-05
1.25961e-06
1.86208e-05
9.1115e-07
1.77987e-05
8.1983e-07
1.67163e-05
1.07691e-06
1.55621e-05
1.15424e-06
1.45685e-05
9.93925e-07
1.37227e-05
8.46313e-07
1.28241e-05
8.99195e-07
1.18362e-05
9.88976e-07
1.09428e-05
8.94057e-07
1.02012e-05
7.41641e-07
9.49494e-06
7.0537e-07
8.69036e-06
8.03153e-07
7.91343e-06
7.75085e-07
7.22964e-06
6.81708e-07
6.59064e-06
6.37163e-07
5.824e-06
7.6567e-07
5.01177e-06
8.12161e-07
4.24303e-06
7.69255e-07
3.63298e-06
6.11294e-07
3.13137e-06
5.03209e-07
2.54949e-06
5.83751e-07
1.82577e-06
7.25399e-07
1.19221e-06
6.35154e-07
7.16826e-07
4.76833e-07
3.75629e-07
3.426e-07
2.08486e-08
3.5611e-07
-4.25147e-07
4.47331e-07
-7.93645e-07
3.69874e-07
-1.11379e-06
3.21436e-07
-1.46101e-06
3.48943e-07
-1.74597e-06
2.87004e-07
-1.8866e-06
1.42092e-07
-1.87522e-06
-9.81998e-09
-1.93719e-06
6.33536e-08
-1.86943e-06
-6.61348e-08
-1.73333e-06
-1.3415e-07
-1.69022e-06
-4.18975e-08
-1.59629e-06
-9.31662e-08
-1.51566e-06
-8.00923e-08
-1.57527e-06
5.99852e-08
-1.64262e-06
6.76853e-08
-1.80525e-06
1.63388e-07
-1.90578e-06
1.00534e-07
-2.01198e-06
1.06281e-07
-2.05646e-06
4.44668e-08
-2.09159e-06
3.52289e-08
-2.16202e-06
7.08732e-08
-2.23074e-06
6.94249e-08
-2.29526e-06
6.48734e-08
-2.30563e-06
1.04148e-08
-2.28936e-06
-1.58741e-08
-2.26083e-06
-2.80866e-08
-2.24345e-06
-1.67757e-08
-2.19076e-06
-5.23216e-08
-2.09491e-06
-9.55986e-08
-1.90963e-06
-1.85098e-07
-1.68225e-06
-2.2694e-07
-1.40446e-06
-2.77291e-07
-1.18949e-06
-2.14808e-07
-1.09709e-06
-9.21521e-08
-1.06502e-06
-3.1825e-08
-1.07236e-06
7.57755e-09
-1.04125e-06
-3.09439e-08
-1.03563e-06
-5.44524e-09
-1.03142e-06
-4.05698e-09
-9.91407e-07
-3.97874e-08
-9.30856e-07
-6.04667e-08
-8.84803e-07
-4.59511e-08
-8.49103e-07
-3.56041e-08
-8.02745e-07
-4.62115e-08
-7.55895e-07
-4.66778e-08
-6.85527e-07
-7.01871e-08
-5.9264e-07
-9.26783e-08
-4.53449e-07
-1.38974e-07
-2.8033e-07
-1.72836e-07
-5.50695e-08
-2.24953e-07
1.22199e-07
-1.76956e-07
2.18449e-07
-9.59543e-08
2.84833e-07
-6.60705e-08
3.04188e-07
-1.90376e-08
3.35713e-07
-3.11892e-08
3.29211e-07
6.8225e-09
3.28817e-07
6.77749e-10
3.51467e-07
-2.23732e-08
3.75752e-07
-2.40124e-08
4.04714e-07
-2.86994e-08
4.19216e-07
-1.42865e-08
4.22932e-07
-3.47149e-09
4.37541e-07
-1.43652e-08
4.63209e-07
-2.53996e-08
4.72359e-07
-8.92769e-09
4.75645e-07
-3.05827e-09
4.78396e-07
-2.51839e-09
4.88891e-07
-1.02955e-08
4.98653e-07
-9.56867e-09
4.90908e-07
7.95802e-09
4.82158e-07
9.00051e-09
4.7509e-07
7.32482e-09
4.72937e-07
2.39045e-09
4.534e-07
1.98169e-08
4.32652e-07
2.10306e-08
4.12487e-07
2.04184e-08
3.89092e-07
2.35957e-08
3.57896e-07
3.13586e-08
3.26383e-07
3.16522e-08
2.98009e-07
2.84843e-08
2.68679e-07
2.94087e-08
2.26157e-07
4.25828e-08
1.83145e-07
4.3064e-08
1.37237e-07
4.5937e-08
8.8276e-08
4.89616e-08
4.88715e-08
3.9375e-08
9.15199e-09
3.96619e-08
-4.46977e-08
5.37691e-08
-1.03093e-07
5.8292e-08
-1.58636e-07
5.54112e-08
-2.08359e-07
4.95756e-08
-2.61045e-07
5.25031e-08
-3.24162e-07
6.29209e-08
-3.89225e-07
6.48398e-08
-4.49423e-07
5.99487e-08
-5.07512e-07
5.77958e-08
-5.7458e-07
6.67536e-08
-6.46522e-07
7.15927e-08
-7.15699e-07
6.87956e-08
-7.81156e-07
6.50403e-08
-8.51654e-07
7.00776e-08
-9.2743e-07
7.53341e-08
-1.00481e-06
7.69282e-08
-1.07809e-06
7.28252e-08
-1.14808e-06
6.95458e-08
-1.22473e-06
7.61962e-08
-1.30496e-06
7.97861e-08
-1.38309e-06
7.7708e-08
-1.4593e-06
7.57983e-08
-1.53467e-06
7.49675e-08
-1.61291e-06
7.78591e-08
-1.69128e-06
7.80046e-08
-1.76963e-06
7.80224e-08
-1.84806e-06
7.81375e-08
-1.92432e-06
7.59149e-08
-2.00059e-06
7.59906e-08
-2.07838e-06
7.75492e-08
-2.15527e-06
7.66443e-08
-2.22984e-06
7.43466e-08
-2.30165e-06
7.16069e-08
-2.37614e-06
7.43181e-08
-2.45052e-06
7.42273e-08
-2.52343e-06
7.26687e-08
-2.59252e-06
6.89312e-08
-2.66271e-06
7.00431e-08
-2.73229e-06
6.94418e-08
-2.79998e-06
6.75661e-08
-2.86608e-06
6.60075e-08
-2.93026e-06
6.41024e-08
-2.99389e-06
6.36002e-08
-3.05646e-06
6.24783e-08
-3.11638e-06
5.98986e-08
-3.17325e-06
5.6859e-08
-3.23014e-06
5.69038e-08
-3.28571e-06
5.55788e-08
-3.33993e-06
5.42499e-08
-3.39154e-06
5.16211e-08
-3.44128e-06
4.98695e-08
-3.48767e-06
4.62953e-08
-3.53246e-06
4.47836e-08
-3.57808e-06
4.56108e-08
-3.6205e-06
4.23996e-08
-3.66029e-06
3.9769e-08
-3.69693e-06
3.66025e-08
-3.73399e-06
3.69978e-08
-3.76808e-06
3.40244e-08
-3.79999e-06
3.1831e-08
-3.82952e-06
2.94539e-08
-3.85614e-06
2.64829e-08
-3.88231e-06
2.61592e-08
-3.90616e-06
2.37925e-08
-3.92789e-06
2.16898e-08
-3.94818e-06
2.02792e-08
-3.96513e-06
1.69054e-08
-3.97857e-06
1.33339e-08
-3.99187e-06
1.32973e-08
-4.00332e-06
1.14713e-08
-4.01313e-06
9.80294e-09
-4.02048e-06
7.28784e-09
-4.02586e-06
5.35548e-09
-4.02912e-06
3.2456e-09
-4.02937e-06
2.49797e-10
-4.029e-06
-3.39686e-10
-4.02688e-06
-2.12525e-09
-4.02312e-06
-3.74797e-09
-4.01729e-06
-5.81371e-09
-4.00955e-06
-7.7394e-09
-3.9995e-06
-1.00484e-08
-3.98881e-06
-1.06905e-08
-3.97688e-06
-1.18366e-08
-3.96368e-06
-1.33395e-08
-3.94808e-06
-1.56095e-08
-3.93145e-06
-1.66415e-08
-3.91364e-06
-1.783e-08
-3.89445e-06
-1.91928e-08
-3.87416e-06
-2.03065e-08
-3.85258e-06
-2.15888e-08
-3.82987e-06
-2.27259e-08
-3.80603e-06
-2.38452e-08
-3.7817e-06
-2.43275e-08
-3.75643e-06
-2.52589e-08
-3.72979e-06
-2.66595e-08
-3.70244e-06
-2.73636e-08
-3.6744e-06
-2.80348e-08
-3.64567e-06
-2.87366e-08
-3.61628e-06
-2.93824e-08
-3.58639e-06
-2.98968e-08
-3.55609e-06
-3.02757e-08
-3.52521e-06
-3.0838e-08
-3.49349e-06
-3.17291e-08
-3.46103e-06
-3.24609e-08
-3.42878e-06
-3.22465e-08
-3.39602e-06
-3.27534e-08
-3.36286e-06
-3.31377e-08
-3.32922e-06
-3.36309e-08
-3.29559e-06
-3.36179e-08
-3.26183e-06
-3.37473e-08
-3.22786e-06
-3.39426e-08
-3.19374e-06
-3.4093e-08
-3.15939e-06
-3.43279e-08
-3.12489e-06
-3.44736e-08
-3.09026e-06
-3.46078e-08
-3.05548e-06
-3.47626e-08
-3.0208e-06
-3.46612e-08
-2.98622e-06
-3.45625e-08
-2.95178e-06
-3.44049e-08
-2.91741e-06
-3.43501e-08
-2.88309e-06
-3.42902e-08
-2.84878e-06
-3.42776e-08
-2.81456e-06
-3.41941e-08
-2.78045e-06
-3.40778e-08
-2.7465e-06
-3.39168e-08
-2.71275e-06
-3.37196e-08
-2.67919e-06
-3.35255e-08
-2.64577e-06
-3.33819e-08
-2.61253e-06
-3.3215e-08
-2.57941e-06
-3.30993e-08
-2.54643e-06
-3.29513e-08
-2.51365e-06
-3.27628e-08
-2.48107e-06
-3.25516e-08
-2.4487e-06
-3.23455e-08
-2.41651e-06
-3.21616e-08
-2.38451e-06
-3.19743e-08
-2.35272e-06
-3.17651e-08
-2.32115e-06
-3.15465e-08
-2.28982e-06
-3.1296e-08
-2.25879e-06
-3.09992e-08
-2.22806e-06
-3.07042e-08
-2.19762e-06
-3.04087e-08
-2.16748e-06
-3.01067e-08
-2.13766e-06
-2.97825e-08
-2.10817e-06
-2.94599e-08
-2.07899e-06
-2.91416e-08
-2.05014e-06
-2.88164e-08
-2.02161e-06
-2.84891e-08
-1.9934e-06
-2.81689e-08
-1.96551e-06
-2.7854e-08
-1.93792e-06
-2.75493e-08
-1.91062e-06
-2.72644e-08
-1.88361e-06
-2.69737e-08
-1.8569e-06
-2.66741e-08
-1.83048e-06
-2.63831e-08
-1.80434e-06
-2.61033e-08
-1.77849e-06
-2.58121e-08
-1.75294e-06
-2.55151e-08
-1.72769e-06
-2.52169e-08
-1.70274e-06
-2.49152e-08
-1.6781e-06
-2.46121e-08
-1.65376e-06
-2.43115e-08
-1.62972e-06
-2.4011e-08
-1.60599e-06
-2.37089e-08
-1.58255e-06
-2.34114e-08
-1.55941e-06
-2.31171e-08
-1.53656e-06
-2.28248e-08
-1.51401e-06
-2.25331e-08
-1.49175e-06
-2.22418e-08
-1.46978e-06
-2.19565e-08
-1.44809e-06
-2.16718e-08
-1.4267e-06
-2.13847e-08
-1.40559e-06
-2.10922e-08
-1.38479e-06
-2.07972e-08
-1.36427e-06
-2.05106e-08
-1.34402e-06
-2.024e-08
-1.32404e-06
-1.99844e-08
-1.30429e-06
-1.97411e-08
-1.28478e-06
-1.95076e-08
-1.26549e-06
-1.92896e-08
-1.24639e-06
-1.90946e-08
-1.22748e-06
-1.89066e-08
-1.20878e-06
-1.87114e-08
-1.19027e-06
-1.85062e-08
-1.17198e-06
-1.82947e-08
-1.1539e-06
-1.80863e-08
-1.13601e-06
-1.78808e-08
-1.11834e-06
-1.76724e-08
-1.10087e-06
-1.7466e-08
-1.0836e-06
-1.72673e-08
-1.06653e-06
-1.7081e-08
-1.04964e-06
-1.69029e-08
-1.03291e-06
-1.67323e-08
-1.01635e-06
-1.65701e-08
-9.99936e-07
-1.64156e-08
-9.83673e-07
-1.62638e-08
-9.67564e-07
-1.61076e-08
-9.51615e-07
-1.59461e-08
-9.35831e-07
-1.57799e-08
-9.20217e-07
-1.56092e-08
-9.04778e-07
-1.54349e-08
-8.89512e-07
-1.52641e-08
-8.74407e-07
-1.51037e-08
-8.59453e-07
-1.49536e-08
-8.44641e-07
-1.48099e-08
-8.29966e-07
-1.46716e-08
-8.1542e-07
-1.4539e-08
-8.01005e-07
-1.44062e-08
-7.8673e-07
-1.42643e-08
-7.72609e-07
-1.41095e-08
-7.58651e-07
-1.39459e-08
-7.44856e-07
-1.37815e-08
-7.31219e-07
-1.3622e-08
-7.17733e-07
-1.34699e-08
-7.04391e-07
-1.33262e-08
-6.91179e-07
-1.31949e-08
-6.78091e-07
-1.30717e-08
-6.65125e-07
-1.29508e-08
-6.52286e-07
-1.28248e-08
-6.39582e-07
-1.26902e-08
-6.2702e-07
-1.2549e-08
-6.14602e-07
-1.24052e-08
-6.02331e-07
-1.22601e-08
-5.90207e-07
-1.21128e-08
-5.7823e-07
-1.19667e-08
-5.66392e-07
-1.18294e-08
-5.5468e-07
-1.1703e-08
-5.43093e-07
-1.15793e-08
-5.3164e-07
-1.1447e-08
-5.20332e-07
-1.13006e-08
-5.09185e-07
-1.11412e-08
-4.98204e-07
-1.09741e-08
-4.8739e-07
-1.08085e-08
-4.76732e-07
-1.06523e-08
-4.66221e-07
-1.05075e-08
-4.55846e-07
-1.0371e-08
-4.45603e-07
-1.02383e-08
-4.35495e-07
-1.01017e-08
-4.25534e-07
-9.95457e-09
-4.15731e-07
-9.7955e-09
-4.06095e-07
-9.62841e-09
-3.96627e-07
-9.46011e-09
-3.87322e-07
-9.29757e-09
-3.78165e-07
-9.14936e-09
-3.69138e-07
-9.01907e-09
-3.6023e-07
-8.90028e-09
-3.51445e-07
-8.77823e-09
-3.42795e-07
-8.64296e-09
-3.34293e-07
-8.49684e-09
-3.25939e-07
-8.34912e-09
-3.17732e-07
-8.20192e-09
-3.0967e-07
-8.05729e-09
-3.01739e-07
-7.92467e-09
-2.93933e-07
-7.80055e-09
-2.86257e-07
-7.67123e-09
-2.78724e-07
-7.52837e-09
-2.7134e-07
-7.37994e-09
-2.641e-07
-7.23561e-09
-2.5699e-07
-7.1057e-09
-2.50001e-07
-6.98528e-09
-2.43126e-07
-6.87137e-09
-2.36361e-07
-6.76074e-09
-2.29723e-07
-6.6344e-09
-2.23193e-07
-6.52624e-09
-2.16786e-07
-6.40233e-09
-2.10534e-07
-6.24705e-09
-2.04374e-07
-6.15442e-09
-1.98311e-07
-6.05573e-09
-1.92454e-07
-5.84945e-09
-1.86511e-07
-5.93487e-09
-1.80705e-07
-5.79833e-09
-1.75349e-07
-5.34688e-09
-1.6988e-07
-5.45783e-09
-1.64627e-07
-5.24013e-09
-1.59996e-07
-4.61704e-09
-1.56128e-07
-3.85183e-09
-1.52345e-07
-3.76495e-09
-1.48019e-07
-4.3071e-09
-1.43628e-07
-4.37027e-09
-1.39159e-07
-4.44624e-09
-1.34709e-07
-4.42714e-09
-1.30341e-07
-4.3427e-09
-1.26052e-07
-4.2628e-09
-1.21822e-07
-4.20123e-09
-1.17659e-07
-4.1336e-09
-1.13508e-07
-4.12166e-09
-1.09487e-07
-3.99072e-09
-1.05572e-07
-3.88429e-09
-1.01727e-07
-3.81281e-09
-9.80421e-08
-3.65281e-09
-9.43289e-08
-3.67952e-09
-9.07525e-08
-3.54038e-09
-8.73536e-08
-3.35974e-09
-8.41367e-08
-3.1746e-09
-8.09575e-08
-3.13258e-09
-7.76656e-08
-3.23976e-09
-7.45087e-08
-3.09905e-09
-7.1378e-08
-3.06617e-09
-6.84003e-08
-2.90528e-09
-6.55344e-08
-2.78397e-09
-6.28576e-08
-2.58469e-09
-6.0235e-08
-2.51834e-09
-5.7516e-08
-2.60342e-09
-5.50047e-08
-2.37951e-09
-5.26115e-08
-2.24478e-09
-5.01395e-08
-2.30588e-09
-4.77569e-08
-2.19592e-09
-4.59188e-08
-1.63852e-09
-4.294e-08
-2.77055e-09
-4.03483e-08
-2.40315e-09
-3.92192e-08
-1.0154e-09
-3.67872e-08
-2.57563e-09
-3.6572e-08
-8.69988e-10
-3.80227e-08
-4.76687e-10
-4.63625e-08
5.28101e-09
-5.15742e-08
-3.37019e-10
-5.97588e-08
-1.66645e-09
-6.35576e-08
-5.20856e-09
-6.5576e-08
-6.13842e-09
-6.6448e-08
-6.49912e-09
-6.66519e-08
-6.45679e-09
-6.65484e-08
-6.12682e-09
-6.63049e-08
-5.69675e-09
-6.59641e-08
-5.28356e-09
-6.55594e-08
-4.88999e-09
-6.51163e-08
-4.5175e-09
-6.45988e-08
-4.22205e-09
-6.39479e-08
-4.02173e-09
-6.31657e-08
-3.85123e-09
-6.23201e-08
-3.64102e-09
-6.14655e-08
-3.40089e-09
-6.05885e-08
-3.19581e-09
-5.96248e-08
-3.07415e-09
-5.85777e-08
-2.96552e-09
-5.74825e-08
-2.83629e-09
-5.63642e-08
-2.6946e-09
-5.52442e-08
-2.54294e-09
-5.4148e-08
-2.37581e-09
-5.30959e-08
-2.19753e-09
-5.20902e-08
-2.02552e-09
-5.11175e-08
-1.87512e-09
-5.01574e-08
-1.75308e-09
-4.91885e-08
-1.66038e-09
-4.81877e-08
-1.59861e-09
-4.71243e-08
-1.57547e-09
-4.59695e-08
-1.58914e-09
-4.47552e-08
-1.57888e-09
-4.34151e-08
-1.64301e-09
-4.19309e-08
-1.73335e-09
-4.03126e-08
-1.82154e-09
-3.85903e-08
-1.88703e-09
-3.6803e-08
-1.92083e-09
-3.49885e-08
-1.92354e-09
-3.31783e-08
-1.90125e-09
-3.13952e-08
-1.86175e-09
-2.96596e-08
-1.80721e-09
-2.79957e-08
-1.73316e-09
-2.64323e-08
-1.63413e-09
-2.49923e-08
-1.51539e-09
-2.36779e-08
-1.39688e-09
-2.24658e-08
-1.30362e-09
-2.1312e-08
-1.25529e-09
-2.01652e-08
-1.25877e-09
-1.8979e-08
-1.30853e-09
-1.77161e-08
-1.3947e-09
-1.63498e-08
-1.50646e-09
-1.4876e-08
-1.62089e-09
-1.33423e-08
-1.68571e-09
-1.18616e-08
-1.63576e-09
-1.05574e-08
-1.46012e-09
-9.45941e-09
-1.25258e-09
-8.45733e-09
-1.15329e-09
-7.34574e-09
-1.2574e-09
-6.01614e-09
-1.46821e-09
-4.63376e-09
-1.51223e-09
-3.50953e-09
-1.24402e-09
-2.86199e-09
-7.56243e-10
-2.49847e-09
-4.60452e-10
-2.00195e-09
-5.81254e-10
-1.12134e-09
-9.53055e-10
-1.83232e-10
-9.98412e-10
3.96032e-10
-6.27846e-10
6.37475e-10
-2.78867e-10
1.10615e-09
-4.95614e-10
2.15959e-09
-1.07064e-09
3.33619e-09
-1.18493e-09
4.21792e-09
-8.8221e-10
5.07678e-09
-8.52601e-10
6.41991e-09
-1.33119e-09
7.98031e-09
-1.54359e-09
8.995e-09
-9.93736e-10
9.59003e-09
-5.71037e-10
1.03591e-08
-7.43771e-10
1.07948e-08
-4.10826e-10
1.13703e-08
-5.52763e-10
1.0902e-09
7.11432e-05
2.41821e-06
6.99959e-05
2.24153e-06
6.8878e-05
2.2472e-06
6.7719e-05
2.2767e-06
6.6492e-05
2.40908e-06
6.52482e-05
2.46935e-06
6.40072e-05
2.50445e-06
6.27357e-05
2.55153e-06
6.14431e-05
2.56588e-06
6.01481e-05
2.56283e-06
5.88355e-05
2.61308e-06
5.75037e-05
2.66842e-06
5.61647e-05
2.70308e-06
5.4833e-05
2.7135e-06
5.34872e-05
2.67051e-06
5.21137e-05
2.6508e-06
5.07423e-05
2.63812e-06
4.93851e-05
2.66904e-06
4.7989e-05
2.8583e-06
4.66251e-05
2.95275e-06
4.52867e-05
2.76326e-06
4.39654e-05
2.54169e-06
4.25967e-05
2.547e-06
4.11735e-05
2.79262e-06
3.98356e-05
2.87944e-06
3.85134e-05
2.78689e-06
3.72418e-05
2.51502e-06
3.59142e-05
2.50464e-06
3.44975e-05
2.85803e-06
3.30188e-05
2.96896e-06
3.1625e-05
2.59849e-06
3.04125e-05
2.32243e-06
2.92734e-05
2.37254e-06
2.81203e-05
2.55037e-06
2.68647e-05
2.71988e-06
2.55156e-05
2.44611e-06
2.43209e-05
2.16913e-06
2.32036e-05
2.25405e-06
2.21208e-05
2.35906e-06
2.09695e-05
2.4892e-06
1.97445e-05
2.49296e-06
1.87019e-05
1.96055e-06
1.77183e-05
1.80326e-06
1.67752e-05
2.02e-06
1.57575e-05
2.17336e-06
1.46833e-05
2.07421e-06
1.36551e-05
1.8783e-06
1.2697e-05
1.85707e-06
1.1791e-05
1.89609e-06
1.09136e-05
1.77285e-06
1.00797e-05
1.58004e-06
9.24801e-06
1.53862e-06
8.4356e-06
1.61714e-06
7.66323e-06
1.55026e-06
6.98282e-06
1.36471e-06
6.32988e-06
1.29219e-06
5.64121e-06
1.45692e-06
4.87386e-06
1.58096e-06
4.1388e-06
1.50698e-06
3.57042e-06
1.18007e-06
3.01836e-06
1.0566e-06
2.38821e-06
1.21309e-06
1.70425e-06
1.40931e-06
1.08816e-06
1.2512e-06
6.46508e-07
9.19371e-07
2.13751e-07
7.76083e-07
-1.98671e-07
7.69515e-07
-5.55364e-07
8.04937e-07
-9.28429e-07
7.43607e-07
-1.3338e-06
7.27475e-07
-1.68052e-06
6.95926e-07
-1.91036e-06
5.16771e-07
-2.12622e-06
3.5757e-07
-2.33956e-06
2.03494e-07
-2.52278e-06
2.46169e-07
-2.70072e-06
1.10978e-07
-2.8239e-06
-1.13712e-08
-2.72979e-06
-1.36567e-07
-2.51899e-06
-3.03692e-07
-2.46345e-06
-1.34832e-07
-2.43155e-06
2.87133e-08
-2.29846e-06
-6.51129e-08
-2.09549e-06
-3.88171e-08
-1.99031e-06
-3.73004e-09
-1.86887e-06
-1.38477e-08
-1.94046e-06
1.17322e-07
-2.06461e-06
1.60701e-07
-2.2151e-06
2.22129e-07
-2.32648e-06
1.81745e-07
-2.34718e-06
8.65527e-08
-2.33291e-06
-2.93592e-09
-2.33302e-06
-1.47777e-08
-2.32534e-06
-3.42225e-08
-2.31633e-06
-2.49222e-08
-2.29982e-06
-6.81534e-08
-2.26745e-06
-1.27457e-07
-2.237e-06
-2.15079e-07
-2.20379e-06
-2.59542e-07
-2.17951e-06
-3.01628e-07
-2.05001e-06
-3.44194e-07
-1.82728e-06
-3.14681e-07
-1.54123e-06
-3.17638e-07
-1.30308e-06
-2.3059e-07
-1.16899e-06
-1.65024e-07
-1.05364e-06
-1.2091e-07
-9.9328e-07
-6.45865e-08
-9.48111e-07
-8.5009e-08
-9.14536e-07
-9.41958e-08
-9.09129e-07
-5.12712e-08
-8.96581e-07
-4.80658e-08
-8.40185e-07
-1.02523e-07
-7.77767e-07
-1.08927e-07
-7.13173e-07
-1.34337e-07
-6.52905e-07
-1.52621e-07
-6.02387e-07
-1.89177e-07
-5.44476e-07
-2.3008e-07
-5.03639e-07
-2.65216e-07
-4.14372e-07
-2.65643e-07
-2.65025e-07
-2.44649e-07
-4.45928e-08
-2.85911e-07
1.52041e-07
-2.15097e-07
2.51036e-07
-1.296e-07
3.2688e-07
-6.84724e-08
3.717e-07
-4.36648e-08
4.0556e-07
-5.57958e-08
3.96476e-07
-1.44477e-08
3.93826e-07
-2.57414e-08
4.16292e-07
-3.6386e-08
4.35759e-07
-2.26092e-08
4.54824e-07
-3.30462e-08
4.71154e-07
-4.15043e-08
4.79222e-07
-1.67516e-08
4.84513e-07
-8.14149e-09
4.91527e-07
-9.2744e-09
4.98574e-07
-1.71232e-08
5.01195e-07
-1.2068e-08
4.95071e-07
1.42999e-08
4.91858e-07
1.24639e-08
4.86476e-07
1.30138e-08
4.76131e-07
1.2938e-08
4.56684e-07
3.94654e-08
4.41089e-07
3.67939e-08
4.23921e-07
3.77465e-08
3.97011e-07
5.05264e-08
3.67007e-07
6.13821e-08
3.40379e-07
5.82551e-08
3.12101e-07
5.67169e-08
2.75557e-07
6.58768e-08
2.32645e-07
8.53367e-08
1.94137e-07
8.14049e-08
1.53077e-07
8.68224e-08
1.06638e-07
9.5142e-08
6.24069e-08
8.33147e-08
1.63715e-08
8.53605e-08
-3.60195e-08
1.0579e-07
-9.11844e-08
1.1304e-07
-1.44098e-07
1.07885e-07
-1.96719e-07
1.01708e-07
-2.53795e-07
1.09088e-07
-3.15624e-07
1.24186e-07
-3.79607e-07
1.28248e-07
-4.41402e-07
1.21054e-07
-5.02182e-07
1.17902e-07
-5.68121e-07
1.31924e-07
-6.39311e-07
1.4203e-07
-7.10115e-07
1.38708e-07
-7.78434e-07
1.3255e-07
-8.47839e-07
1.38573e-07
-9.22284e-07
1.4899e-07
-9.99553e-07
1.53353e-07
-1.07317e-06
1.45464e-07
-1.1452e-06
1.40787e-07
-1.22257e-06
1.52671e-07
-1.30241e-06
1.58952e-07
-1.37828e-06
1.52873e-07
-1.45486e-06
1.51445e-07
-1.5336e-06
1.53093e-07
-1.61171e-06
1.55148e-07
-1.68852e-06
1.5441e-07
-1.76544e-06
1.54515e-07
-1.84359e-06
1.55611e-07
-1.92147e-06
1.53186e-07
-1.99959e-06
1.53585e-07
-2.0774e-06
1.54976e-07
-2.1538e-06
1.52741e-07
-2.22856e-06
1.48612e-07
-2.30203e-06
1.44637e-07
-2.37569e-06
1.47708e-07
-2.44916e-06
1.47315e-07
-2.52197e-06
1.4505e-07
-2.59371e-06
1.40423e-07
-2.6648e-06
1.40707e-07
-2.7342e-06
1.3872e-07
-2.8015e-06
1.3464e-07
-2.86672e-06
1.31106e-07
-2.93143e-06
1.28502e-07
-2.99619e-06
1.28214e-07
-3.05907e-06
1.25225e-07
-3.11883e-06
1.19614e-07
-3.17688e-06
1.14709e-07
-3.23326e-06
1.13296e-07
-3.28877e-06
1.11077e-07
-3.3435e-06
1.09e-07
-3.39449e-06
1.02623e-07
-3.44371e-06
9.88183e-08
-3.49094e-06
9.34724e-08
-3.53767e-06
9.14553e-08
-3.58311e-06
9.10322e-08
-3.62454e-06
8.37858e-08
-3.6643e-06
7.92659e-08
-3.70236e-06
7.46286e-08
-3.73965e-06
7.41011e-08
-3.7731e-06
6.74483e-08
-3.80451e-06
6.32582e-08
-3.83422e-06
5.8906e-08
-3.86175e-06
5.36548e-08
-3.88733e-06
5.17226e-08
-3.91063e-06
4.71018e-08
-3.93223e-06
4.31769e-08
-3.95247e-06
4.04189e-08
-3.96918e-06
3.35694e-08
-3.98417e-06
2.82116e-08
-3.99703e-06
2.61717e-08
-4.00799e-06
2.24144e-08
-4.01786e-06
1.96899e-08
-4.02485e-06
1.43055e-08
-4.02986e-06
1.03926e-08
-4.03292e-06
6.34335e-09
-4.03408e-06
1.43419e-09
-4.03342e-06
-9.55567e-10
-4.03104e-06
-4.45134e-09
-4.02724e-06
-7.49045e-09
-4.0211e-06
-1.19145e-08
-4.01309e-06
-1.56309e-08
-4.00347e-06
-1.96737e-08
-3.99233e-06
-2.17774e-08
-3.97964e-06
-2.44642e-08
-3.96592e-06
-2.69981e-08
-3.95147e-06
-3.00812e-08
-3.93522e-06
-3.27719e-08
-3.91704e-06
-3.59472e-08
-3.8975e-06
-3.86783e-08
-3.87715e-06
-4.05923e-08
-3.8555e-06
-4.31942e-08
-3.83244e-06
-4.57402e-08
-3.80839e-06
-4.78764e-08
-3.784e-06
-4.86005e-08
-3.75877e-06
-5.04491e-08
-3.73233e-06
-5.30899e-08
-3.70472e-06
-5.4937e-08
-3.67646e-06
-5.62611e-08
-3.64749e-06
-5.76724e-08
-3.61781e-06
-5.89932e-08
-3.5877e-06
-6.0002e-08
-3.557e-06
-6.09399e-08
-3.52563e-06
-6.21826e-08
-3.49374e-06
-6.3559e-08
-3.46181e-06
-6.44549e-08
-3.42972e-06
-6.42527e-08
-3.39685e-06
-6.55792e-08
-3.36354e-06
-6.64015e-08
-3.33e-06
-6.71752e-08
-3.29622e-06
-6.73287e-08
-3.26233e-06
-6.76083e-08
-3.22821e-06
-6.80363e-08
-3.19396e-06
-6.83248e-08
-3.15953e-06
-6.86564e-08
-3.12506e-06
-6.89252e-08
-3.09051e-06
-6.91649e-08
-3.05591e-06
-6.9381e-08
-3.0212e-06
-6.92944e-08
-2.98656e-06
-6.91758e-08
-2.95209e-06
-6.88269e-08
-2.91772e-06
-6.86907e-08
-2.88346e-06
-6.85208e-08
-2.84919e-06
-6.85239e-08
-2.81499e-06
-6.83845e-08
-2.78083e-06
-6.81922e-08
-2.74678e-06
-6.7944e-08
-2.71285e-06
-6.76212e-08
-2.6791e-06
-6.72512e-08
-2.64556e-06
-6.68577e-08
-2.61225e-06
-6.65039e-08
-2.57905e-06
-6.6257e-08
-2.54605e-06
-6.59291e-08
-2.51325e-06
-6.55482e-08
-2.48062e-06
-6.51365e-08
-2.4482e-06
-6.47234e-08
-2.41601e-06
-6.43238e-08
-2.38405e-06
-6.39104e-08
-2.35232e-06
-6.34675e-08
-2.32084e-06
-6.30143e-08
-2.2896e-06
-6.25159e-08
-2.25861e-06
-6.19578e-08
-2.22789e-06
-6.13923e-08
-2.19745e-06
-6.08103e-08
-2.16733e-06
-6.0207e-08
-2.13751e-06
-5.95787e-08
-2.10799e-06
-5.89519e-08
-2.07878e-06
-5.83229e-08
-2.04988e-06
-5.76869e-08
-2.02128e-06
-5.7052e-08
-1.993e-06
-5.6421e-08
-1.96503e-06
-5.57976e-08
-1.93736e-06
-5.5189e-08
-1.91e-06
-5.46006e-08
-1.88295e-06
-5.40065e-08
-1.8562e-06
-5.34052e-08
-1.82975e-06
-5.28116e-08
-1.80361e-06
-5.2229e-08
-1.77777e-06
-5.16357e-08
-1.75224e-06
-5.10377e-08
-1.72701e-06
-5.04388e-08
-1.70208e-06
-4.98355e-08
-1.67746e-06
-4.923e-08
-1.65314e-06
-4.86279e-08
-1.62913e-06
-4.80273e-08
-1.60542e-06
-4.74266e-08
-1.58201e-06
-4.6833e-08
-1.55889e-06
-4.62451e-08
-1.53607e-06
-4.56607e-08
-1.51355e-06
-4.50751e-08
-1.49133e-06
-4.44873e-08
-1.46941e-06
-4.3907e-08
-1.44778e-06
-4.33322e-08
-1.42643e-06
-4.27622e-08
-1.40537e-06
-4.21925e-08
-1.38458e-06
-4.16232e-08
-1.36406e-06
-4.1067e-08
-1.34381e-06
-4.05372e-08
-1.3238e-06
-4.00356e-08
-1.30404e-06
-3.95564e-08
-1.2845e-06
-3.90904e-08
-1.2652e-06
-3.8643e-08
-1.24612e-06
-3.82267e-08
-1.22725e-06
-3.78275e-08
-1.20858e-06
-3.74255e-08
-1.19013e-06
-3.70109e-08
-1.17189e-06
-3.65879e-08
-1.15386e-06
-3.61737e-08
-1.13603e-06
-3.57708e-08
-1.11839e-06
-3.53701e-08
-1.10094e-06
-3.49721e-08
-1.08367e-06
-3.4584e-08
-1.06659e-06
-3.42144e-08
-1.04968e-06
-3.38588e-08
-1.03295e-06
-3.3514e-08
-1.01639e-06
-3.31816e-08
-9.99993e-07
-3.28617e-08
-9.83763e-07
-3.25472e-08
-9.67696e-07
-3.22285e-08
-9.5179e-07
-3.19062e-08
-9.36039e-07
-3.15826e-08
-9.20442e-07
-3.12557e-08
-9.04998e-07
-3.09245e-08
-8.89706e-07
-3.05983e-08
-8.74562e-07
-3.02859e-08
-8.59565e-07
-2.99857e-08
-8.44716e-07
-2.96901e-08
-8.30018e-07
-2.93976e-08
-8.15471e-07
-2.91124e-08
-8.01071e-07
-2.88306e-08
-7.86817e-07
-2.85415e-08
-7.72709e-07
-2.82381e-08
-7.5875e-07
-2.79246e-08
-7.44938e-07
-2.76115e-08
-7.3127e-07
-2.73065e-08
-7.17743e-07
-2.70124e-08
-7.04354e-07
-2.67295e-08
-6.91101e-07
-2.6461e-08
-6.77984e-07
-2.62022e-08
-6.65002e-07
-2.59459e-08
-6.52156e-07
-2.5682e-08
-6.39453e-07
-2.54054e-08
-6.26893e-07
-2.51195e-08
-6.14477e-07
-2.48331e-08
-6.02199e-07
-2.45495e-08
-5.90059e-07
-2.42651e-08
-5.7806e-07
-2.39786e-08
-5.66204e-07
-2.36981e-08
-5.54491e-07
-2.34276e-08
-5.42924e-07
-2.3157e-08
-5.31508e-07
-2.28727e-08
-5.20247e-07
-2.25711e-08
-5.09139e-07
-2.22583e-08
-4.98178e-07
-2.19425e-08
-4.87359e-07
-2.16339e-08
-4.76678e-07
-2.13394e-08
-4.66134e-07
-2.10567e-08
-4.55731e-07
-2.07782e-08
-4.45477e-07
-2.04962e-08
-4.35379e-07
-2.02035e-08
-4.2544e-07
-1.98972e-08
-4.15659e-07
-1.95809e-08
-4.06029e-07
-1.92622e-08
-3.96545e-07
-1.89478e-08
-3.87202e-07
-1.86441e-08
-3.77999e-07
-1.83565e-08
-3.68936e-07
-1.80854e-08
-3.60018e-07
-1.78232e-08
-3.51244e-07
-1.75559e-08
-3.42617e-07
-1.72753e-08
-3.34129e-07
-1.69887e-08
-3.25774e-07
-1.67092e-08
-3.17547e-07
-1.64334e-08
-3.09457e-07
-1.6153e-08
-3.0151e-07
-1.58762e-08
-2.93712e-07
-1.56044e-08
-2.86061e-07
-1.53271e-08
-2.78553e-07
-1.50401e-08
-2.71181e-07
-1.47565e-08
-2.63935e-07
-1.44845e-08
-2.56805e-07
-1.42395e-08
-2.498e-07
-1.39942e-08
-2.42904e-07
-1.37713e-08
-2.36141e-07
-1.35294e-08
-2.29545e-07
-1.32352e-08
-2.23069e-07
-1.3008e-08
-2.16668e-07
-1.28099e-08
-2.10435e-07
-1.24884e-08
-2.04084e-07
-1.25147e-08
-1.97897e-07
-1.22545e-08
-1.92227e-07
-1.15315e-08
-1.86666e-07
-1.15102e-08
-1.81278e-07
-1.12018e-08
-1.76329e-07
-1.03121e-08
-1.72309e-07
-9.49681e-09
-1.68319e-07
-9.25038e-09
-1.63594e-07
-9.36378e-09
-1.58544e-07
-8.92686e-09
-1.53441e-07
-8.89525e-09
-1.48657e-07
-9.1216e-09
-1.43926e-07
-9.13471e-09
-1.39332e-07
-9.07559e-09
-1.34814e-07
-8.9834e-09
-1.30392e-07
-8.80494e-09
-1.26058e-07
-8.63823e-09
-1.21811e-07
-8.49115e-09
-1.17587e-07
-8.40071e-09
-1.1343e-07
-8.32427e-09
-1.09476e-07
-7.99213e-09
-1.05631e-07
-7.77944e-09
-1.01854e-07
-7.64145e-09
-9.82215e-08
-7.33945e-09
-9.48133e-08
-7.14513e-09
-9.14782e-08
-6.93732e-09
-8.80212e-08
-6.88374e-09
-8.45235e-08
-6.74616e-09
-8.10763e-08
-6.66178e-09
-7.77902e-08
-6.61694e-09
-7.45605e-08
-6.43023e-09
-7.13844e-08
-6.35639e-09
-6.8212e-08
-6.20654e-09
-6.53179e-08
-5.82332e-09
-6.2615e-08
-5.45153e-09
-6.00925e-08
-5.22447e-09
-5.76634e-08
-5.24314e-09
-5.50062e-08
-5.27391e-09
-5.27849e-08
-4.73246e-09
-4.92491e-08
-6.14115e-09
-4.62585e-08
-5.50217e-09
-4.48057e-08
-3.40081e-09
-4.33356e-08
-4.46273e-09
-4.26738e-08
-3.06517e-09
-4.46039e-08
1.52397e-09
-5.53935e-08
9.57519e-09
-6.80351e-08
1.54793e-08
-7.41367e-08
1.30444e-08
-7.56847e-08
1.6708e-08
-7.27692e-08
1.16041e-08
-6.9754e-08
9.53648e-09
-6.90515e-08
7.42568e-09
-6.87698e-08
5.9317e-09
-6.8452e-08
4.52491e-09
-6.80872e-08
3.53857e-09
-6.77187e-08
2.94215e-09
-6.72297e-08
2.40055e-09
-6.6602e-08
1.89831e-09
-6.58938e-08
1.50682e-09
-6.51532e-08
1.20902e-09
-6.43739e-08
8.88708e-10
-6.35599e-08
5.31667e-10
-6.27364e-08
2.17786e-10
-6.19005e-08
-1.72642e-11
-6.10169e-08
-2.20868e-10
-6.00616e-08
-4.51763e-10
-5.90491e-08
-7.23432e-10
-5.79577e-08
-1.00547e-09
-5.67927e-08
-1.23989e-09
-5.55957e-08
-1.40067e-09
-5.44205e-08
-1.4797e-09
-5.32952e-08
-1.4986e-09
-5.22164e-08
-1.49381e-09
-5.11647e-08
-1.49945e-09
-5.01132e-08
-1.53868e-09
-4.90435e-08
-1.60998e-09
-4.79403e-08
-1.71116e-09
-4.67934e-08
-1.83933e-09
-4.56027e-08
-1.99184e-09
-4.4368e-08
-2.1675e-09
-4.30358e-08
-2.35891e-09
-4.16454e-08
-2.5723e-09
-4.02082e-08
-2.78764e-09
-3.87282e-08
-2.98473e-09
-3.72063e-08
-3.14653e-09
-3.56451e-08
-3.26328e-09
-3.40493e-08
-3.33419e-09
-3.24294e-08
-3.36029e-09
-3.0804e-08
-3.34237e-09
-2.92013e-08
-3.27369e-09
-2.76549e-08
-3.1457e-09
-2.61915e-08
-2.96042e-09
-2.48188e-08
-2.74356e-09
-2.35199e-08
-2.54045e-09
-2.22633e-08
-2.39163e-09
-2.10176e-08
-2.31807e-09
-1.97682e-08
-2.31049e-09
-1.85109e-08
-2.3538e-09
-1.7235e-08
-2.44579e-09
-1.59166e-08
-2.58916e-09
-1.45388e-08
-2.75467e-09
-1.31241e-08
-2.85098e-09
-1.17412e-08
-2.76694e-09
-1.04609e-08
-2.48978e-09
-9.29218e-09
-2.17502e-09
-8.15509e-09
-2.05153e-09
-6.97761e-09
-2.20639e-09
-5.79491e-09
-2.43537e-09
-4.75455e-09
-2.35219e-09
-3.97807e-09
-1.83699e-09
-3.34264e-09
-1.22634e-09
-2.59974e-09
-1.05703e-09
-1.61727e-09
-1.4368e-09
-6.42804e-10
-1.81999e-09
5.96247e-11
-1.61232e-09
5.09304e-10
-1.00728e-09
1.15017e-09
-8.66689e-10
2.17777e-09
-1.48608e-09
3.16318e-09
-2.03342e-09
3.83613e-09
-1.84843e-09
4.46464e-09
-1.51312e-09
5.51857e-09
-1.9193e-09
6.51292e-09
-2.34686e-09
7.0544e-09
-2.11306e-09
7.58136e-09
-1.55378e-09
8.24669e-09
-1.27314e-09
8.84299e-09
-1.37808e-09
9.58677e-09
-1.19091e-09
1.06834e-08
-1.68721e-09
1.48389e-09
7.12291e-05
3.66104e-06
6.99967e-05
3.46928e-06
6.87526e-05
3.4897e-06
6.7493e-05
3.53651e-06
6.62431e-05
3.65932e-06
6.49947e-05
3.71999e-06
6.37461e-05
3.7555e-06
6.24878e-05
3.81083e-06
6.12107e-05
3.84546e-06
5.99062e-05
3.87063e-06
5.85817e-05
3.93832e-06
5.72454e-05
4.00305e-06
5.59027e-05
4.04461e-06
5.45609e-05
4.05584e-06
5.31933e-05
4.03869e-06
5.18057e-05
4.03739e-06
5.04034e-05
4.03857e-06
4.89862e-05
4.0789e-06
4.76386e-05
4.18494e-06
4.63893e-05
4.21491e-06
4.50628e-05
4.09706e-06
4.36322e-05
3.97484e-06
4.21781e-05
3.99181e-06
4.08608e-05
4.10445e-06
3.96181e-05
4.12311e-06
3.84024e-05
4.02254e-06
3.70458e-05
3.87406e-06
3.56079e-05
3.93243e-06
3.43349e-05
4.13558e-06
3.30561e-05
4.25213e-06
3.16078e-05
4.06695e-06
3.02534e-05
3.68919e-06
2.90891e-05
3.53951e-06
2.79907e-05
3.64472e-06
2.68672e-05
3.84527e-06
2.5552e-05
3.77272e-06
2.42371e-05
3.49301e-06
2.31181e-05
3.37606e-06
2.20964e-05
3.38049e-06
2.10665e-05
3.51735e-06
2.00182e-05
3.54945e-06
1.88485e-05
3.13382e-06
1.76868e-05
2.96299e-06
1.66831e-05
3.01694e-06
1.57177e-05
3.13239e-06
1.47082e-05
3.08306e-06
1.36414e-05
2.94581e-06
1.26229e-05
2.87696e-06
1.17065e-05
2.81231e-06
1.07939e-05
2.6853e-06
9.86868e-06
2.50878e-06
8.99972e-06
2.41176e-06
8.24731e-06
2.37371e-06
7.50615e-06
2.29807e-06
6.78744e-06
2.08751e-06
6.08194e-06
2.00112e-06
5.39686e-06
2.14411e-06
4.69886e-06
2.27916e-06
4.13743e-06