/*--------------------------------*- C++ -*----------------------------------*\
| =========                 |                                                 |
| \\      /  F ield         | OpenFOAM: The Open Source CFD Toolbox           |
|  \\    /   O peration     | Version:  v2006                                 |
|   \\  /    A nd           | Website:  www.openfoam.com                      |
|    \\/     M anipulation  |                                                 |
\*---------------------------------------------------------------------------*/
FoamFile
{
    version     2.0;
    format      ascii;
    class       volScalarField;
    location    "2.4";
    object      k;
}
// * * * * * * * * * * * * * * * * * * * * * * * * * * * * * * * * * * * * * //

dimensions      [0 2 -2 0 0 0 0];


internalField   nonuniform List<scalar> 
33000
(
1.2916e-08
1.88822e-08
2.56803e-08
3.10826e-08
3.4397e-08
3.60596e-08
3.67652e-08
3.70358e-08
3.71565e-08
3.72247e-08
3.7258e-08
3.72529e-08
3.72157e-08
3.71641e-08
3.71198e-08
3.70998e-08
3.71027e-08
3.7133e-08
3.71851e-08
3.72265e-08
3.72512e-08
3.72796e-08
3.73281e-08
3.74201e-08
3.75573e-08
3.7664e-08
3.77163e-08
3.77942e-08
3.79277e-08
3.80096e-08
3.80413e-08
3.80982e-08
3.81944e-08
3.83159e-08
3.84346e-08
3.84101e-08
3.83458e-08
3.84502e-08
3.86314e-08
3.86584e-08
3.8618e-08
3.84857e-08
3.83243e-08
3.8297e-08
3.82278e-08
3.79994e-08
3.76929e-08
3.74893e-08
3.73459e-08
3.71091e-08
3.68561e-08
3.66345e-08
3.65289e-08
3.64383e-08
3.63015e-08
3.61596e-08
3.6052e-08
3.59452e-08
3.57103e-08
3.54201e-08
3.5125e-08
3.49896e-08
3.49217e-08
3.46568e-08
3.43617e-08
3.40612e-08
3.389e-08
3.38008e-08
3.35528e-08
3.32839e-08
3.30249e-08
3.26037e-08
3.19681e-08
3.11198e-08
3.03689e-08
2.91049e-08
2.75984e-08
2.62191e-08
2.58472e-08
2.53409e-08
2.55684e-08
2.56122e-08
2.58472e-08
2.58841e-08
2.60009e-08
2.58686e-08
2.55942e-08
2.55382e-08
2.54807e-08
2.54244e-08
2.5277e-08
2.50352e-08
2.47295e-08
2.43906e-08
2.40518e-08
2.349e-08
2.28605e-08
2.17772e-08
2.10113e-08
1.9577e-08
1.94812e-08
1.91247e-08
1.92968e-08
1.90762e-08
1.90666e-08
1.91261e-08
1.90308e-08
1.88615e-08
1.87405e-08
1.86724e-08
1.85854e-08
1.84699e-08
1.83743e-08
1.81102e-08
1.79018e-08
1.73574e-08
1.71887e-08
1.65514e-08
1.66408e-08
1.68109e-08
1.68938e-08
1.68726e-08
1.69279e-08
1.69787e-08
1.70268e-08
1.70684e-08
1.71187e-08
1.71634e-08
1.71964e-08
1.72255e-08
1.72586e-08
1.7295e-08
1.73174e-08
1.73393e-08
1.7357e-08
1.73808e-08
1.74032e-08
1.74241e-08
1.74469e-08
1.74702e-08
1.74963e-08
1.75196e-08
1.7546e-08
1.7571e-08
1.75987e-08
1.76285e-08
1.76587e-08
1.76878e-08
1.77265e-08
1.77715e-08
1.78153e-08
1.78665e-08
1.79136e-08
1.79538e-08
1.80095e-08
1.80802e-08
1.81459e-08
1.82028e-08
1.82486e-08
1.83061e-08
1.83686e-08
1.84224e-08
1.8466e-08
1.85109e-08
1.85629e-08
1.86114e-08
1.86501e-08
1.86842e-08
1.87242e-08
1.87648e-08
1.87993e-08
1.88239e-08
1.88469e-08
1.88735e-08
1.88954e-08
1.89115e-08
1.89233e-08
1.89315e-08
1.89382e-08
1.89397e-08
1.89369e-08
1.89295e-08
1.89165e-08
1.89018e-08
1.88824e-08
1.88588e-08
1.88285e-08
1.87948e-08
1.87568e-08
1.87145e-08
1.86669e-08
1.86148e-08
1.85582e-08
1.8497e-08
1.84317e-08
1.83617e-08
1.82868e-08
1.82083e-08
1.8131e-08
1.80535e-08
1.79765e-08
1.79001e-08
1.78233e-08
1.77468e-08
1.76713e-08
1.75964e-08
1.7522e-08
1.74486e-08
1.73752e-08
1.73012e-08
1.72283e-08
1.71557e-08
1.70828e-08
1.70115e-08
1.69411e-08
1.68703e-08
1.68002e-08
1.67307e-08
1.66614e-08
1.65919e-08
1.65237e-08
1.6456e-08
1.63882e-08
1.63212e-08
1.62545e-08
1.61871e-08
1.61204e-08
1.60541e-08
1.59872e-08
1.59216e-08
1.58563e-08
1.57906e-08
1.57255e-08
1.56601e-08
1.55948e-08
1.553e-08
1.54647e-08
1.54e-08
1.53353e-08
1.52712e-08
1.52074e-08
1.5143e-08
1.5079e-08
1.50143e-08
1.49499e-08
1.48853e-08
1.48208e-08
1.47565e-08
1.4692e-08
1.46279e-08
1.45632e-08
1.4499e-08
1.4434e-08
1.43696e-08
1.43047e-08
1.42404e-08
1.41755e-08
1.41108e-08
1.40455e-08
1.39803e-08
1.39144e-08
1.38488e-08
1.37825e-08
1.37167e-08
1.36504e-08
1.35843e-08
1.35179e-08
1.34513e-08
1.33847e-08
1.33177e-08
1.32512e-08
1.31843e-08
1.31174e-08
1.30501e-08
1.29826e-08
1.29152e-08
1.28477e-08
1.27799e-08
1.27126e-08
1.26451e-08
1.25773e-08
1.25096e-08
1.2442e-08
1.2374e-08
1.2306e-08
1.2238e-08
1.21694e-08
1.21008e-08
1.20319e-08
1.19629e-08
1.18938e-08
1.18247e-08
1.17556e-08
1.16867e-08
1.16191e-08
1.15529e-08
1.1488e-08
1.14244e-08
1.13621e-08
1.1301e-08
1.12412e-08
1.11826e-08
1.11252e-08
1.1069e-08
1.1014e-08
1.096e-08
1.09072e-08
1.08553e-08
1.08045e-08
1.07547e-08
1.07059e-08
1.06581e-08
1.06112e-08
1.05652e-08
1.05203e-08
1.04762e-08
1.04331e-08
1.03909e-08
1.03495e-08
1.03091e-08
1.02696e-08
1.0231e-08
1.01932e-08
1.01562e-08
1.01201e-08
1.00848e-08
1.00503e-08
1.00165e-08
9.98357e-09
9.95141e-09
9.91996e-09
9.88917e-09
9.85902e-09
9.8295e-09
9.80059e-09
9.77231e-09
9.74465e-09
9.71754e-09
9.69096e-09
9.66492e-09
9.6394e-09
9.61442e-09
9.59001e-09
9.56611e-09
9.54267e-09
9.51968e-09
9.49713e-09
9.47501e-09
9.45336e-09
9.43214e-09
9.41131e-09
9.39084e-09
9.37074e-09
9.351e-09
9.33162e-09
9.31259e-09
9.29394e-09
9.27567e-09
9.25773e-09
9.24009e-09
9.22275e-09
9.2057e-09
9.18893e-09
9.17246e-09
9.15631e-09
9.14043e-09
9.12483e-09
9.1095e-09
9.09441e-09
9.07958e-09
9.065e-09
9.05068e-09
9.03659e-09
9.02273e-09
9.0091e-09
8.99568e-09
8.98248e-09
8.96951e-09
8.95678e-09
8.94428e-09
8.93198e-09
8.91988e-09
8.90798e-09
8.89629e-09
8.88481e-09
8.87354e-09
8.86248e-09
8.8516e-09
8.84091e-09
8.83041e-09
8.8201e-09
8.80998e-09
8.80007e-09
8.79033e-09
8.78076e-09
8.77136e-09
8.76212e-09
8.75306e-09
8.74418e-09
8.73549e-09
8.72696e-09
8.71859e-09
8.71037e-09
8.70231e-09
8.69441e-09
8.68668e-09
8.67911e-09
8.6717e-09
8.66444e-09
8.65732e-09
8.65034e-09
8.6435e-09
8.63683e-09
8.6303e-09
8.62391e-09
8.61767e-09
8.61156e-09
8.60558e-09
8.59973e-09
8.59403e-09
8.58846e-09
8.58297e-09
8.57762e-09
8.57236e-09
8.56712e-09
8.56216e-09
8.55738e-09
8.55251e-09
8.54827e-09
8.54359e-09
8.54118e-09
8.53666e-09
8.53317e-09
8.52934e-09
8.52567e-09
8.52203e-09
8.51843e-09
8.51496e-09
8.51157e-09
8.50831e-09
8.50515e-09
8.50199e-09
8.49887e-09
8.49589e-09
8.49309e-09
8.49027e-09
8.4877e-09
8.4851e-09
8.4832e-09
8.48093e-09
8.47888e-09
8.4768e-09
8.47487e-09
8.47286e-09
8.47099e-09
8.46912e-09
8.46764e-09
8.46596e-09
8.4644e-09
8.46335e-09
8.46172e-09
8.46064e-09
8.45897e-09
8.45656e-09
8.45562e-09
8.45457e-09
8.45229e-09
8.45655e-09
8.45345e-09
8.47618e-09
8.47256e-09
8.47664e-09
8.47828e-09
8.47888e-09
8.47893e-09
8.47856e-09
8.47782e-09
8.47682e-09
8.47563e-09
8.47436e-09
8.47308e-09
8.47188e-09
8.4708e-09
8.46979e-09
8.4688e-09
8.4678e-09
8.46681e-09
8.46587e-09
8.46499e-09
8.46417e-09
8.46335e-09
8.46251e-09
8.46165e-09
8.46075e-09
8.45986e-09
8.45898e-09
8.45812e-09
8.45729e-09
8.45651e-09
8.45577e-09
8.45508e-09
8.45448e-09
8.454e-09
8.45362e-09
8.45335e-09
8.4532e-09
8.45316e-09
8.45321e-09
8.45338e-09
8.45363e-09
8.45394e-09
8.45424e-09
8.45446e-09
8.4545e-09
8.45437e-09
8.45412e-09
8.45385e-09
8.4537e-09
8.45378e-09
8.45425e-09
8.45511e-09
8.45629e-09
8.45752e-09
8.45846e-09
8.45883e-09
8.45882e-09
8.45896e-09
8.45984e-09
8.46129e-09
8.46234e-09
8.46217e-09
8.46071e-09
8.45896e-09
8.45827e-09
8.45863e-09
8.45843e-09
8.457e-09
8.45514e-09
8.45492e-09
8.45649e-09
8.45723e-09
8.45718e-09
8.45839e-09
8.4614e-09
8.46305e-09
8.46273e-09
8.46234e-09
8.46051e-09
8.46498e-09
8.45285e-09
1.01692e-08
1.06227e-08
1.12297e-08
1.17644e-08
1.21324e-08
1.23335e-08
1.24189e-08
1.24327e-08
1.24066e-08
1.23739e-08
1.23623e-08
1.23626e-08
1.23588e-08
1.23357e-08
1.22665e-08
1.21876e-08
1.21432e-08
1.21629e-08
1.22587e-08
1.23308e-08
1.22167e-08
1.20132e-08
1.19241e-08
1.20342e-08
1.21566e-08
1.21047e-08
1.19238e-08
1.18251e-08
1.19889e-08
1.20326e-08
1.17954e-08
1.16329e-08
1.16911e-08
1.18407e-08
1.18799e-08
1.15535e-08
1.13559e-08
1.14759e-08
1.16248e-08
1.1669e-08
1.15811e-08
1.11983e-08
1.10373e-08
1.12372e-08
1.13296e-08
1.11485e-08
1.09613e-08
1.09786e-08
1.10484e-08
1.09327e-08
1.07641e-08
1.0698e-08
1.07632e-08
1.07423e-08
1.06674e-08
1.06152e-08
1.07079e-08
1.0758e-08
1.07138e-08
1.05682e-08
1.04712e-08
1.05286e-08
1.06335e-08
1.05421e-08
1.0408e-08
1.0307e-08
1.03006e-08
1.03416e-08
1.02881e-08
1.0258e-08
1.02695e-08
1.02425e-08
1.02077e-08
1.01971e-08
1.02149e-08
1.02089e-08
1.01963e-08
1.01764e-08
1.01523e-08
1.01486e-08
1.01784e-08
1.02408e-08
1.03114e-08
1.02897e-08
1.02755e-08
1.01667e-08
1.01478e-08
1.01558e-08
1.01635e-08
1.01628e-08
1.01407e-08
1.01285e-08
1.01217e-08
1.01145e-08
1.01108e-08
1.01105e-08
1.01093e-08
1.01077e-08
1.01063e-08
1.01055e-08
1.01147e-08
1.01501e-08
1.01787e-08
1.01575e-08
1.01926e-08
1.01789e-08
1.0142e-08
1.0112e-08
1.01105e-08
1.01143e-08
1.01116e-08
1.01089e-08
1.01054e-08
1.01004e-08
1.01013e-08
1.01005e-08
1.00997e-08
1.00975e-08
1.01006e-08
1.01402e-08
1.01832e-08
1.01466e-08
1.01786e-08
1.0166e-08
1.01362e-08
1.01333e-08
1.01281e-08
1.01261e-08
1.01259e-08
1.01173e-08
1.01113e-08
1.01226e-08
1.01226e-08
1.01189e-08
1.01145e-08
1.01163e-08
1.01263e-08
1.01237e-08
1.01224e-08
1.01206e-08
1.01306e-08
1.01277e-08
1.01264e-08
1.01301e-08
1.01321e-08
1.01284e-08
1.01256e-08
1.01273e-08
1.01334e-08
1.01298e-08
1.01298e-08
1.01305e-08
1.01232e-08
1.01218e-08
1.01286e-08
1.01291e-08
1.0125e-08
1.01201e-08
1.01208e-08
1.01252e-08
1.01243e-08
1.01196e-08
1.01162e-08
1.01198e-08
1.01213e-08
1.01186e-08
1.01137e-08
1.01142e-08
1.01161e-08
1.01158e-08
1.0111e-08
1.01073e-08
1.01095e-08
1.011e-08
1.01059e-08
1.01037e-08
1.01025e-08
1.01014e-08
1.00993e-08
1.00977e-08
1.00963e-08
1.00939e-08
1.00924e-08
1.00911e-08
1.00888e-08
1.00859e-08
1.00831e-08
1.00825e-08
1.00809e-08
1.00787e-08
1.00758e-08
1.00745e-08
1.00725e-08
1.007e-08
1.00677e-08
1.00657e-08
1.00644e-08
1.00623e-08
1.00598e-08
1.00573e-08
1.00559e-08
1.00543e-08
1.00527e-08
1.00504e-08
1.00484e-08
1.00463e-08
1.00449e-08
1.0044e-08
1.00418e-08
1.004e-08
1.00384e-08
1.00375e-08
1.00358e-08
1.00345e-08
1.00332e-08
1.00318e-08
1.0031e-08
1.00299e-08
1.00289e-08
1.00282e-08
1.00272e-08
1.0026e-08
1.00257e-08
1.00252e-08
1.00249e-08
1.00245e-08
1.00242e-08
1.0024e-08
1.00239e-08
1.00239e-08
1.00241e-08
1.00242e-08
1.00244e-08
1.00246e-08
1.00247e-08
1.00249e-08
1.0025e-08
1.00251e-08
1.0025e-08
1.0025e-08
1.00253e-08
1.00253e-08
1.00252e-08
1.00253e-08
1.00253e-08
1.00253e-08
1.00251e-08
1.00249e-08
1.00249e-08
1.00248e-08
1.00247e-08
1.00245e-08
1.00244e-08
1.00241e-08
1.00239e-08
1.00237e-08
1.00234e-08
1.0023e-08
1.00227e-08
1.00225e-08
1.00222e-08
1.00219e-08
1.00215e-08
1.00212e-08
1.00208e-08
1.00204e-08
1.002e-08
1.00196e-08
1.00192e-08
1.00188e-08
1.00183e-08
1.00179e-08
1.00174e-08
1.00169e-08
1.00164e-08
1.00159e-08
1.00155e-08
1.0015e-08
1.00146e-08
1.00141e-08
1.00136e-08
1.00131e-08
1.00126e-08
1.00122e-08
1.00117e-08
1.00113e-08
1.00108e-08
1.00104e-08
1.00099e-08
1.00095e-08
1.0009e-08
1.00086e-08
1.00081e-08
1.00077e-08
1.00072e-08
1.00067e-08
1.00063e-08
1.00058e-08
1.00053e-08
1.00048e-08
1.00044e-08
1.00039e-08
1.00035e-08
1.00031e-08
1.00027e-08
1.00023e-08
1.00019e-08
1.00015e-08
1.00011e-08
1.00007e-08
1.00003e-08
9.99995e-09
9.99957e-09
9.9992e-09
9.99883e-09
9.99847e-09
9.99811e-09
9.99775e-09
9.9974e-09
9.99705e-09
9.99671e-09
9.99637e-09
9.99602e-09
9.99568e-09
9.99534e-09
9.99502e-09
9.99469e-09
9.99437e-09
9.99405e-09
9.99374e-09
9.99345e-09
9.99317e-09
9.9929e-09
9.99264e-09
9.99238e-09
9.99214e-09
9.99189e-09
9.99165e-09
9.9914e-09
9.99115e-09
9.99091e-09
9.99068e-09
9.99045e-09
9.99023e-09
9.99001e-09
9.98981e-09
9.9896e-09
9.98941e-09
9.98922e-09
9.98903e-09
9.98885e-09
9.98867e-09
9.98849e-09
9.98832e-09
9.98815e-09
9.98798e-09
9.98782e-09
9.98767e-09
9.98752e-09
9.98737e-09
9.98723e-09
9.98708e-09
9.98694e-09
9.9868e-09
9.98665e-09
9.98652e-09
9.98638e-09
9.98626e-09
9.98613e-09
9.98602e-09
9.98591e-09
9.9858e-09
9.98569e-09
9.98558e-09
9.98547e-09
9.98536e-09
9.98526e-09
9.98515e-09
9.98505e-09
9.98495e-09
9.98485e-09
9.98476e-09
9.98465e-09
9.98455e-09
9.98444e-09
9.98434e-09
9.98424e-09
9.98415e-09
9.98406e-09
9.98397e-09
9.98388e-09
9.98379e-09
9.98369e-09
9.98358e-09
9.98348e-09
9.98339e-09
9.9833e-09
9.98322e-09
9.98314e-09
9.98305e-09
9.98297e-09
9.98289e-09
9.98281e-09
9.98273e-09
9.98266e-09
9.98258e-09
9.9825e-09
9.98243e-09
9.98235e-09
9.98227e-09
9.98219e-09
9.98212e-09
9.98206e-09
9.982e-09
9.98194e-09
9.98187e-09
9.98179e-09
9.98173e-09
9.98168e-09
9.98162e-09
9.98161e-09
9.98153e-09
9.98138e-09
9.98131e-09
9.98125e-09
9.98121e-09
9.98099e-09
9.98098e-09
9.98114e-09
9.98112e-09
9.98113e-09
9.98106e-09
9.98103e-09
9.981e-09
9.98097e-09
9.98093e-09
9.9809e-09
9.98087e-09
9.98085e-09
9.98084e-09
9.98078e-09
9.98073e-09
9.98071e-09
9.98069e-09
9.98065e-09
9.98063e-09
9.98064e-09
9.98065e-09
9.98064e-09
9.98061e-09
9.98058e-09
9.98059e-09
9.98056e-09
9.98051e-09
9.98047e-09
9.98045e-09
9.98045e-09
9.98046e-09
9.98044e-09
9.98057e-09
9.98044e-09
9.9804e-09
9.98024e-09
9.98085e-09
9.98082e-09
9.9829e-09
9.98331e-09
9.98129e-09
9.98171e-09
9.9821e-09
9.98175e-09
9.98153e-09
9.98134e-09
9.98123e-09
9.98113e-09
9.98104e-09
9.98094e-09
9.98085e-09
9.98078e-09
9.98072e-09
9.98067e-09
9.98065e-09
9.98064e-09
9.98061e-09
9.98058e-09
9.98054e-09
9.98052e-09
9.98052e-09
9.98052e-09
9.98052e-09
9.98051e-09
9.98049e-09
9.98047e-09
9.98045e-09
9.98043e-09
9.98042e-09
9.98042e-09
9.98043e-09
9.98045e-09
9.98047e-09
9.9805e-09
9.98053e-09
9.98054e-09
9.98054e-09
9.98054e-09
9.98054e-09
9.98054e-09
9.98054e-09
9.98054e-09
9.98053e-09
9.98052e-09
9.9805e-09
9.98049e-09
9.98047e-09
9.98046e-09
9.98045e-09
9.98045e-09
9.98045e-09
9.98046e-09
9.98047e-09
9.98048e-09
9.98049e-09
9.9805e-09
9.98049e-09
9.98047e-09
9.98045e-09
9.98047e-09
9.98048e-09
9.98047e-09
9.98047e-09
9.98038e-09
9.98028e-09
9.98033e-09
9.98043e-09
9.98045e-09
9.98039e-09
9.98024e-09
9.98032e-09
9.98044e-09
9.98047e-09
9.98043e-09
9.98044e-09
9.98047e-09
9.98047e-09
9.98046e-09
9.98037e-09
9.98041e-09
9.98033e-09
9.98044e-09
9.98011e-09
1.00153e-08
1.00586e-08
1.0121e-08
1.01793e-08
1.02226e-08
1.02464e-08
1.0255e-08
1.02553e-08
1.02511e-08
1.02454e-08
1.02421e-08
1.02409e-08
1.02391e-08
1.02343e-08
1.02243e-08
1.02135e-08
1.0206e-08
1.02055e-08
1.02153e-08
1.02214e-08
1.02054e-08
1.01798e-08
1.01679e-08
1.01782e-08
1.01881e-08
1.01798e-08
1.01576e-08
1.01475e-08
1.01655e-08
1.01729e-08
1.0146e-08
1.01215e-08
1.01203e-08
1.01333e-08
1.01401e-08
1.01144e-08
1.00935e-08
1.00974e-08
1.01073e-08
1.01124e-08
1.0107e-08
1.0074e-08
1.00603e-08
1.00705e-08
1.0078e-08
1.00674e-08
1.00549e-08
1.00537e-08
1.00559e-08
1.00485e-08
1.00394e-08
1.0036e-08
1.00381e-08
1.00366e-08
1.00324e-08
1.00301e-08
1.00338e-08
1.00369e-08
1.00347e-08
1.00274e-08
1.00246e-08
1.00273e-08
1.00316e-08
1.0028e-08
1.00231e-08
1.00213e-08
1.00215e-08
1.00223e-08
1.00218e-08
1.00218e-08
1.0022e-08
1.00216e-08
1.00213e-08
1.00211e-08
1.00212e-08
1.00209e-08
1.00208e-08
1.00207e-08
1.00212e-08
1.00221e-08
1.00234e-08
1.00253e-08
1.00272e-08
1.00281e-08
1.0027e-08
1.00251e-08
1.00239e-08
1.00236e-08
1.00218e-08
1.00196e-08
1.00178e-08
1.00182e-08
1.0018e-08
1.00177e-08
1.00182e-08
1.00181e-08
1.00178e-08
1.00179e-08
1.00178e-08
1.00177e-08
1.00177e-08
1.00178e-08
1.00181e-08
1.00184e-08
1.00192e-08
1.00191e-08
1.00181e-08
1.00179e-08
1.00181e-08
1.00178e-08
1.00173e-08
1.0017e-08
1.00166e-08
1.00165e-08
1.00164e-08
1.00163e-08
1.00163e-08
1.00163e-08
1.00163e-08
1.00164e-08
1.00167e-08
1.00173e-08
1.0019e-08
1.0019e-08
1.00175e-08
1.0018e-08
1.00175e-08
1.00171e-08
1.0017e-08
1.00168e-08
1.00164e-08
1.00167e-08
1.0017e-08
1.00166e-08
1.00165e-08
1.00165e-08
1.00166e-08
1.00165e-08
1.00164e-08
1.00163e-08
1.00164e-08
1.00163e-08
1.00161e-08
1.00161e-08
1.00161e-08
1.0016e-08
1.00158e-08
1.00158e-08
1.00158e-08
1.00157e-08
1.00157e-08
1.00157e-08
1.00155e-08
1.00154e-08
1.00155e-08
1.00155e-08
1.00154e-08
1.00153e-08
1.00152e-08
1.00153e-08
1.00152e-08
1.00151e-08
1.00149e-08
1.00149e-08
1.00149e-08
1.00148e-08
1.00146e-08
1.00145e-08
1.00145e-08
1.00144e-08
1.00143e-08
1.00141e-08
1.0014e-08
1.0014e-08
1.00139e-08
1.00138e-08
1.00137e-08
1.00137e-08
1.00136e-08
1.00135e-08
1.00135e-08
1.00134e-08
1.00133e-08
1.00133e-08
1.00132e-08
1.00131e-08
1.0013e-08
1.0013e-08
1.00129e-08
1.00129e-08
1.00128e-08
1.00127e-08
1.00126e-08
1.00126e-08
1.00125e-08
1.00124e-08
1.00123e-08
1.00123e-08
1.00122e-08
1.00121e-08
1.00121e-08
1.0012e-08
1.0012e-08
1.00119e-08
1.00118e-08
1.00118e-08
1.00117e-08
1.00116e-08
1.00116e-08
1.00115e-08
1.00114e-08
1.00114e-08
1.00113e-08
1.00113e-08
1.00112e-08
1.00111e-08
1.0011e-08
1.0011e-08
1.00109e-08
1.00109e-08
1.00109e-08
1.00108e-08
1.00107e-08
1.00106e-08
1.00106e-08
1.00106e-08
1.00105e-08
1.00105e-08
1.00104e-08
1.00103e-08
1.00104e-08
1.00104e-08
1.00104e-08
1.00103e-08
1.00102e-08
1.00102e-08
1.00101e-08
1.001e-08
1.001e-08
1.00099e-08
1.00098e-08
1.00098e-08
1.00097e-08
1.00097e-08
1.00096e-08
1.00096e-08
1.00095e-08
1.00094e-08
1.00094e-08
1.00093e-08
1.00093e-08
1.00092e-08
1.00092e-08
1.00091e-08
1.00091e-08
1.0009e-08
1.0009e-08
1.00089e-08
1.00089e-08
1.00088e-08
1.00088e-08
1.00087e-08
1.00087e-08
1.00086e-08
1.00086e-08
1.00085e-08
1.00085e-08
1.00084e-08
1.00084e-08
1.00084e-08
1.00083e-08
1.00083e-08
1.00082e-08
1.00081e-08
1.00081e-08
1.00081e-08
1.0008e-08
1.0008e-08
1.00079e-08
1.00079e-08
1.00078e-08
1.00078e-08
1.00077e-08
1.00077e-08
1.00076e-08
1.00076e-08
1.00075e-08
1.00075e-08
1.00074e-08
1.00074e-08
1.00073e-08
1.00073e-08
1.00072e-08
1.00072e-08
1.00071e-08
1.00071e-08
1.0007e-08
1.0007e-08
1.00069e-08
1.00068e-08
1.00068e-08
1.00067e-08
1.00067e-08
1.00066e-08
1.00066e-08
1.00065e-08
1.00065e-08
1.00064e-08
1.00063e-08
1.00063e-08
1.00062e-08
1.00062e-08
1.00061e-08
1.0006e-08
1.0006e-08
1.00059e-08
1.00059e-08
1.00058e-08
1.00058e-08
1.00057e-08
1.00056e-08
1.00056e-08
1.00055e-08
1.00054e-08
1.00054e-08
1.00053e-08
1.00052e-08
1.00052e-08
1.00051e-08
1.0005e-08
1.0005e-08
1.00049e-08
1.00048e-08
1.00048e-08
1.00047e-08
1.00046e-08
1.00046e-08
1.00045e-08
1.00044e-08
1.00044e-08
1.00043e-08
1.00042e-08
1.00042e-08
1.00041e-08
1.0004e-08
1.0004e-08
1.00039e-08
1.00038e-08
1.00038e-08
1.00037e-08
1.00036e-08
1.00035e-08
1.00035e-08
1.00034e-08
1.00034e-08
1.00033e-08
1.00033e-08
1.00032e-08
1.00031e-08
1.00031e-08
1.0003e-08
1.00029e-08
1.00029e-08
1.00028e-08
1.00028e-08
1.00027e-08
1.00027e-08
1.00026e-08
1.00026e-08
1.00025e-08
1.00024e-08
1.00024e-08
1.00023e-08
1.00023e-08
1.00022e-08
1.00022e-08
1.00021e-08
1.00021e-08
1.0002e-08
1.0002e-08
1.00019e-08
1.00019e-08
1.00018e-08
1.00018e-08
1.00017e-08
1.00017e-08
1.00016e-08
1.00016e-08
1.00015e-08
1.00015e-08
1.00014e-08
1.00014e-08
1.00013e-08
1.00012e-08
1.00012e-08
1.00012e-08
1.00011e-08
1.00011e-08
1.0001e-08
1.00009e-08
1.00009e-08
1.00008e-08
1.00008e-08
1.00007e-08
1.00007e-08
1.00006e-08
1.00005e-08
1.00005e-08
1.00004e-08
1.00003e-08
1.00003e-08
1.00002e-08
1.00002e-08
1.00001e-08
1.00001e-08
1e-08
9.99994e-09
9.99992e-09
9.99985e-09
9.99973e-09
9.99967e-09
9.99965e-09
9.9996e-09
9.99935e-09
9.99931e-09
9.99947e-09
9.99942e-09
9.99942e-09
9.99938e-09
9.99934e-09
9.99929e-09
9.99922e-09
9.99918e-09
9.99914e-09
9.99912e-09
9.99908e-09
9.99902e-09
9.99895e-09
9.99891e-09
9.9989e-09
9.99886e-09
9.99877e-09
9.99876e-09
9.99878e-09
9.99875e-09
9.99872e-09
9.9987e-09
9.99867e-09
9.99861e-09
9.99856e-09
9.99853e-09
9.99851e-09
9.99855e-09
9.99859e-09
9.99844e-09
9.99837e-09
9.99853e-09
9.99833e-09
9.99828e-09
9.99803e-09
9.99977e-09
9.99955e-09
1.00018e-08
1.00018e-08
9.99885e-09
9.999e-09
9.99851e-09
9.99841e-09
9.99803e-09
9.99762e-09
9.99728e-09
9.99721e-09
9.99723e-09
9.99721e-09
9.99721e-09
9.99724e-09
9.99727e-09
9.99731e-09
9.99737e-09
9.99742e-09
9.99746e-09
9.99751e-09
9.99757e-09
9.99761e-09
9.99762e-09
9.99762e-09
9.99764e-09
9.99768e-09
9.99773e-09
9.99778e-09
9.99782e-09
9.99784e-09
9.99783e-09
9.99781e-09
9.99779e-09
9.99779e-09
9.99782e-09
9.99787e-09
9.99791e-09
9.99793e-09
9.99792e-09
9.9979e-09
9.99787e-09
9.99785e-09
9.99784e-09
9.99786e-09
9.9979e-09
9.99795e-09
9.99799e-09
9.998e-09
9.99798e-09
9.99795e-09
9.99791e-09
9.99789e-09
9.99788e-09
9.99788e-09
9.99786e-09
9.99782e-09
9.9978e-09
9.99781e-09
9.99785e-09
9.9979e-09
9.99796e-09
9.99798e-09
9.99789e-09
9.99779e-09
9.99774e-09
9.99768e-09
9.99772e-09
9.99777e-09
9.99771e-09
9.99783e-09
9.99782e-09
9.99767e-09
9.99784e-09
9.9977e-09
9.99792e-09
9.99786e-09
9.99774e-09
9.99795e-09
9.9977e-09
9.99779e-09
9.99783e-09
9.99809e-09
9.99766e-09
9.99766e-09
9.99766e-09
9.99832e-09
9.99891e-09
9.99876e-09
1.00047e-08
1.00148e-08
1.00275e-08
1.0038e-08
1.00445e-08
1.00477e-08
1.00487e-08
1.00483e-08
1.00476e-08
1.00466e-08
1.00456e-08
1.0045e-08
1.00444e-08
1.00434e-08
1.00417e-08
1.00398e-08
1.00384e-08
1.00378e-08
1.00381e-08
1.00378e-08
1.00358e-08
1.0033e-08
1.00316e-08
1.00319e-08
1.00322e-08
1.0031e-08
1.00289e-08
1.00279e-08
1.00293e-08
1.00301e-08
1.00281e-08
1.0026e-08
1.00256e-08
1.00267e-08
1.00275e-08
1.00261e-08
1.00247e-08
1.00245e-08
1.00248e-08
1.0025e-08
1.00245e-08
1.00223e-08
1.00213e-08
1.00215e-08
1.00219e-08
1.00213e-08
1.00206e-08
1.00203e-08
1.00201e-08
1.00194e-08
1.00187e-08
1.00182e-08
1.00179e-08
1.00175e-08
1.0017e-08
1.00167e-08
1.00165e-08
1.00164e-08
1.00161e-08
1.00157e-08
1.00155e-08
1.00153e-08
1.00155e-08
1.00153e-08
1.00152e-08
1.00152e-08
1.00152e-08
1.00153e-08
1.00154e-08
1.00155e-08
1.00157e-08
1.00158e-08
1.00159e-08
1.0016e-08
1.00161e-08
1.00161e-08
1.00159e-08
1.00159e-08
1.00159e-08
1.00161e-08
1.00174e-08
1.00184e-08
1.00194e-08
1.00206e-08
1.00219e-08
1.00241e-08
1.00259e-08
1.00265e-08
1.00252e-08
1.00228e-08
1.0021e-08
1.00194e-08
1.00184e-08
1.00169e-08
1.00172e-08
1.00174e-08
1.00173e-08
1.00173e-08
1.00173e-08
1.00172e-08
1.00172e-08
1.00172e-08
1.00172e-08
1.00173e-08
1.00173e-08
1.00175e-08
1.00177e-08
1.00179e-08
1.00181e-08
1.00179e-08
1.00173e-08
1.00172e-08
1.00168e-08
1.00167e-08
1.00166e-08
1.00165e-08
1.00163e-08
1.00163e-08
1.00162e-08
1.00163e-08
1.00163e-08
1.00163e-08
1.00163e-08
1.00166e-08
1.00168e-08
1.00175e-08
1.00171e-08
1.00162e-08
1.0016e-08
1.00157e-08
1.00156e-08
1.00154e-08
1.00153e-08
1.0015e-08
1.00149e-08
1.00149e-08
1.00151e-08
1.0015e-08
1.00149e-08
1.00148e-08
1.00147e-08
1.00146e-08
1.00145e-08
1.00145e-08
1.00144e-08
1.00143e-08
1.00143e-08
1.00142e-08
1.00141e-08
1.00141e-08
1.00141e-08
1.00141e-08
1.0014e-08
1.0014e-08
1.0014e-08
1.0014e-08
1.00139e-08
1.00139e-08
1.00139e-08
1.00138e-08
1.00138e-08
1.00138e-08
1.00137e-08
1.00136e-08
1.00135e-08
1.00135e-08
1.00134e-08
1.00133e-08
1.00133e-08
1.00132e-08
1.00131e-08
1.0013e-08
1.00129e-08
1.00129e-08
1.00129e-08
1.00128e-08
1.00127e-08
1.00127e-08
1.00127e-08
1.00126e-08
1.00125e-08
1.00125e-08
1.00125e-08
1.00124e-08
1.00124e-08
1.00123e-08
1.00122e-08
1.00122e-08
1.00121e-08
1.00121e-08
1.00121e-08
1.0012e-08
1.0012e-08
1.00119e-08
1.00119e-08
1.00118e-08
1.00118e-08
1.00117e-08
1.00117e-08
1.00116e-08
1.00116e-08
1.00115e-08
1.00115e-08
1.00114e-08
1.00114e-08
1.00113e-08
1.00113e-08
1.00112e-08
1.00112e-08
1.00111e-08
1.00111e-08
1.0011e-08
1.0011e-08
1.00109e-08
1.00109e-08
1.00108e-08
1.00108e-08
1.00107e-08
1.00107e-08
1.00106e-08
1.00106e-08
1.00105e-08
1.00104e-08
1.00104e-08
1.00103e-08
1.00103e-08
1.00102e-08
1.00102e-08
1.00101e-08
1.00101e-08
1.001e-08
1.001e-08
1.00099e-08
1.00099e-08
1.00098e-08
1.00097e-08
1.00097e-08
1.00096e-08
1.00096e-08
1.00095e-08
1.00095e-08
1.00094e-08
1.00094e-08
1.00093e-08
1.00093e-08
1.00092e-08
1.00092e-08
1.00091e-08
1.00091e-08
1.0009e-08
1.0009e-08
1.00089e-08
1.00089e-08
1.00088e-08
1.00088e-08
1.00087e-08
1.00087e-08
1.00086e-08
1.00086e-08
1.00085e-08
1.00085e-08
1.00084e-08
1.00084e-08
1.00083e-08
1.00083e-08
1.00082e-08
1.00082e-08
1.00082e-08
1.00081e-08
1.00081e-08
1.0008e-08
1.0008e-08
1.00079e-08
1.00079e-08
1.00078e-08
1.00078e-08
1.00077e-08
1.00077e-08
1.00076e-08
1.00076e-08
1.00075e-08
1.00075e-08
1.00075e-08
1.00074e-08
1.00074e-08
1.00073e-08
1.00073e-08
1.00072e-08
1.00072e-08
1.00071e-08
1.00071e-08
1.0007e-08
1.0007e-08
1.00069e-08
1.00069e-08
1.00068e-08
1.00068e-08
1.00067e-08
1.00067e-08
1.00066e-08
1.00066e-08
1.00065e-08
1.00065e-08
1.00064e-08
1.00064e-08
1.00063e-08
1.00063e-08
1.00062e-08
1.00062e-08
1.00061e-08
1.0006e-08
1.0006e-08
1.00059e-08
1.00059e-08
1.00058e-08
1.00058e-08
1.00057e-08
1.00056e-08
1.00056e-08
1.00055e-08
1.00055e-08
1.00054e-08
1.00054e-08
1.00053e-08
1.00052e-08
1.00052e-08
1.00051e-08
1.00051e-08
1.0005e-08
1.00049e-08
1.00049e-08
1.00048e-08
1.00047e-08
1.00047e-08
1.00046e-08
1.00045e-08
1.00045e-08
1.00044e-08
1.00043e-08
1.00043e-08
1.00042e-08
1.00042e-08
1.00041e-08
1.0004e-08
1.0004e-08
1.00039e-08
1.00038e-08
1.00038e-08
1.00037e-08
1.00036e-08
1.00036e-08
1.00035e-08
1.00035e-08
1.00034e-08
1.00034e-08
1.00033e-08
1.00032e-08
1.00032e-08
1.00031e-08
1.00031e-08
1.0003e-08
1.0003e-08
1.00029e-08
1.00028e-08
1.00028e-08
1.00027e-08
1.00027e-08
1.00026e-08
1.00026e-08
1.00025e-08
1.00025e-08
1.00024e-08
1.00024e-08
1.00023e-08
1.00023e-08
1.00023e-08
1.00022e-08
1.00022e-08
1.00021e-08
1.00021e-08
1.0002e-08
1.0002e-08
1.00019e-08
1.00019e-08
1.00018e-08
1.00018e-08
1.00017e-08
1.00017e-08
1.00016e-08
1.00016e-08
1.00015e-08
1.00015e-08
1.00014e-08
1.00014e-08
1.00014e-08
1.00013e-08
1.00013e-08
1.00012e-08
1.00012e-08
1.00011e-08
1.00011e-08
1.0001e-08
1.0001e-08
1.00009e-08
1.00009e-08
1.00008e-08
1.00007e-08
1.00007e-08
1.00006e-08
1.00006e-08
1.00005e-08
1.00005e-08
1.00004e-08
1.00004e-08
1.00003e-08
1.00003e-08
1.00001e-08
1.00001e-08
1e-08
1e-08
9.99973e-09
9.99969e-09
9.99988e-09
9.99983e-09
9.9998e-09
9.99976e-09
9.99975e-09
9.99972e-09
9.99965e-09
9.9996e-09
9.99953e-09
9.9995e-09
9.99945e-09
9.99937e-09
9.99933e-09
9.99932e-09
9.99927e-09
9.99921e-09
9.9991e-09
9.99908e-09
9.99915e-09
9.99914e-09
9.99913e-09
9.99908e-09
9.99906e-09
9.99899e-09
9.99895e-09
9.99891e-09
9.99882e-09
9.99881e-09
9.99901e-09
9.99892e-09
9.99913e-09
9.99886e-09
9.99849e-09
9.99853e-09
9.99844e-09
1.00001e-08
9.99999e-09
1.00023e-08
1.00024e-08
9.99966e-09
1.00002e-08
9.99996e-09
9.99998e-09
9.99976e-09
9.99967e-09
9.99929e-09
9.99912e-09
9.999e-09
9.99876e-09
9.99863e-09
9.99852e-09
9.99842e-09
9.99835e-09
9.99833e-09
9.99829e-09
9.99826e-09
9.99824e-09
9.99823e-09
9.99822e-09
9.99822e-09
9.99822e-09
9.99821e-09
9.99818e-09
9.99817e-09
9.99818e-09
9.99819e-09
9.99823e-09
9.99827e-09
9.99829e-09
9.99829e-09
9.99825e-09
9.99821e-09
9.99819e-09
9.9982e-09
9.99824e-09
9.99828e-09
9.9983e-09
9.99829e-09
9.99825e-09
9.99821e-09
9.99817e-09
9.99815e-09
9.99815e-09
9.99817e-09
9.99821e-09
9.99826e-09
9.9983e-09
9.99832e-09
9.99832e-09
9.9983e-09
9.99827e-09
9.99825e-09
9.99825e-09
9.99823e-09
9.99819e-09
9.99813e-09
9.9981e-09
9.99814e-09
9.9982e-09
9.99826e-09
9.99832e-09
9.99833e-09
9.9982e-09
9.99806e-09
9.99802e-09
9.99802e-09
9.99807e-09
9.99809e-09
9.99811e-09
9.99815e-09
9.99803e-09
9.99806e-09
9.99804e-09
9.99822e-09
9.99832e-09
9.99803e-09
9.99827e-09
9.99804e-09
9.99816e-09
9.99831e-09
9.99849e-09
9.99807e-09
9.99805e-09
9.9981e-09
9.99798e-09
9.99862e-09
9.99986e-09
9.99927e-09
1.00038e-08
1.0011e-08
1.00187e-08
1.00241e-08
1.00268e-08
1.0028e-08
1.00281e-08
1.00278e-08
1.00276e-08
1.00273e-08
1.00269e-08
1.00265e-08
1.00263e-08
1.00259e-08
1.00254e-08
1.00249e-08
1.00246e-08
1.00244e-08
1.00242e-08
1.0024e-08
1.00236e-08
1.00232e-08
1.0023e-08
1.0023e-08
1.00229e-08
1.00228e-08
1.00225e-08
1.00222e-08
1.0022e-08
1.00218e-08
1.00214e-08
1.00211e-08
1.0021e-08
1.00213e-08
1.00217e-08
1.00222e-08
1.00227e-08
1.00231e-08
1.00234e-08
1.00234e-08
1.00232e-08
1.00228e-08
1.00224e-08
1.00221e-08
1.00217e-08
1.00213e-08
1.00209e-08
1.00206e-08
1.00204e-08
1.00203e-08
1.00203e-08
1.00202e-08
1.00202e-08
1.002e-08
1.00198e-08
1.00194e-08
1.00189e-08
1.00183e-08
1.00178e-08
1.00172e-08
1.00168e-08
1.00164e-08
1.00162e-08
1.00161e-08
1.0016e-08
1.00161e-08
1.00162e-08
1.00163e-08
1.00163e-08
1.00165e-08
1.00166e-08
1.00167e-08
1.00168e-08
1.00167e-08
1.00167e-08
1.00166e-08
1.00164e-08
1.0016e-08
1.00157e-08
1.00156e-08
1.00159e-08
1.00161e-08
1.00164e-08
1.00171e-08
1.00179e-08
1.00191e-08
1.00204e-08
1.00218e-08
1.00234e-08
1.00253e-08
1.00263e-08
1.00251e-08
1.00226e-08
1.00208e-08
1.00188e-08
1.00178e-08
1.0017e-08
1.00169e-08
1.00167e-08
1.00167e-08
1.00166e-08
1.00167e-08
1.00166e-08
1.00165e-08
1.00166e-08
1.00167e-08
1.0017e-08
1.00171e-08
1.00171e-08
1.00173e-08
1.00175e-08
1.00179e-08
1.00176e-08
1.00169e-08
1.00168e-08
1.00166e-08
1.00164e-08
1.00159e-08
1.00162e-08
1.0016e-08
1.00159e-08
1.00159e-08
1.0016e-08
1.0016e-08
1.0016e-08
1.00161e-08
1.00164e-08
1.00167e-08
1.00173e-08
1.00169e-08
1.0016e-08
1.00159e-08
1.00155e-08
1.00154e-08
1.00151e-08
1.00149e-08
1.00148e-08
1.00147e-08
1.00147e-08
1.00149e-08
1.00148e-08
1.00147e-08
1.00146e-08
1.00145e-08
1.00145e-08
1.00144e-08
1.00143e-08
1.00143e-08
1.00142e-08
1.00142e-08
1.00141e-08
1.00141e-08
1.00141e-08
1.00141e-08
1.0014e-08
1.0014e-08
1.0014e-08
1.0014e-08
1.00139e-08
1.00139e-08
1.00138e-08
1.00138e-08
1.00137e-08
1.00137e-08
1.00136e-08
1.00135e-08
1.00135e-08
1.00134e-08
1.00133e-08
1.00132e-08
1.00132e-08
1.00131e-08
1.0013e-08
1.0013e-08
1.00129e-08
1.00129e-08
1.00128e-08
1.00128e-08
1.00127e-08
1.00126e-08
1.00126e-08
1.00125e-08
1.00125e-08
1.00124e-08
1.00124e-08
1.00123e-08
1.00123e-08
1.00122e-08
1.00122e-08
1.00121e-08
1.00121e-08
1.0012e-08
1.0012e-08
1.0012e-08
1.00119e-08
1.00118e-08
1.00118e-08
1.00118e-08
1.00117e-08
1.00116e-08
1.00116e-08
1.00115e-08
1.00115e-08
1.00114e-08
1.00114e-08
1.00113e-08
1.00113e-08
1.00112e-08
1.00112e-08
1.00111e-08
1.0011e-08
1.0011e-08
1.00109e-08
1.00108e-08
1.00108e-08
1.00107e-08
1.00107e-08
1.00106e-08
1.00106e-08
1.00105e-08
1.00104e-08
1.00104e-08
1.00103e-08
1.00103e-08
1.00102e-08
1.00102e-08
1.00101e-08
1.00101e-08
1.001e-08
1.001e-08
1.00099e-08
1.00098e-08
1.00098e-08
1.00098e-08
1.00097e-08
1.00097e-08
1.00096e-08
1.00096e-08
1.00095e-08
1.00095e-08
1.00094e-08
1.00094e-08
1.00093e-08
1.00093e-08
1.00092e-08
1.00092e-08
1.00091e-08
1.00091e-08
1.0009e-08
1.0009e-08
1.00089e-08
1.00089e-08
1.00088e-08