/*--------------------------------*- C++ -*----------------------------------*\
| =========                 |                                                 |
| \\      /  F ield         | OpenFOAM: The Open Source CFD Toolbox           |
|  \\    /   O peration     | Version:  v2006                                 |
|   \\  /    A nd           | Website:  www.openfoam.com                      |
|    \\/     M anipulation  |                                                 |
\*---------------------------------------------------------------------------*/
FoamFile
{
    version     2.0;
    format      ascii;
    class       volScalarField;
    location    "2.4";
    object      nut;
}
// * * * * * * * * * * * * * * * * * * * * * * * * * * * * * * * * * * * * * //

dimensions      [0 2 -1 0 0 0 0];


internalField   nonuniform List<scalar> 
33000
(
4.636e-10
6.54929e-10
8.57415e-10
1.0545e-09
1.21953e-09
1.29796e-09
1.34041e-09
1.37594e-09
1.40845e-09
1.43845e-09
1.46791e-09
1.49857e-09
1.53009e-09
1.56432e-09
1.60106e-09
1.63766e-09
1.67549e-09
1.71386e-09
1.75691e-09
1.81499e-09
1.88217e-09
1.93675e-09
1.97922e-09
2.03216e-09
2.11258e-09
2.20566e-09
2.2868e-09
2.34473e-09
2.42349e-09
2.55104e-09
2.67147e-09
2.74898e-09
2.8373e-09
2.96066e-09
3.13697e-09
3.3071e-09
3.38951e-09
3.51052e-09
3.69913e-09
3.90763e-09
4.1731e-09
4.40746e-09
4.50416e-09
4.66727e-09
4.99564e-09
5.34668e-09
5.57354e-09
5.8069e-09
6.1911e-09
6.68051e-09
7.10127e-09
7.4174e-09
7.87895e-09
8.58732e-09
9.30112e-09
9.81463e-09
1.04272e-08
1.15415e-08
1.30419e-08
1.48839e-08
1.61578e-08
1.70619e-08
1.92467e-08
2.38041e-08
3.03737e-08
3.65095e-08
3.94497e-08
4.20318e-08
4.17248e-08
4.13919e-08
4.10714e-08
4.05502e-08
3.97637e-08
3.87137e-08
3.77838e-08
3.62183e-08
3.43515e-08
3.26414e-08
3.21806e-08
3.15526e-08
3.18349e-08
3.18892e-08
3.21806e-08
3.22264e-08
3.23713e-08
3.22073e-08
3.1867e-08
3.17976e-08
3.17262e-08
2.93111e-08
2.91993e-08
2.99032e-08
3.01793e-08
2.94991e-08
2.80837e-08
2.72376e-08
2.65476e-08
2.68137e-08
2.61792e-08
2.43974e-08
2.42784e-08
2.38354e-08
2.40493e-08
2.37752e-08
2.37633e-08
2.38372e-08
2.37187e-08
2.35084e-08
2.3358e-08
2.32733e-08
2.31652e-08
2.30216e-08
2.29027e-08
2.25745e-08
2.23155e-08
2.16386e-08
2.14289e-08
2.06364e-08
2.07476e-08
2.09591e-08
2.10622e-08
2.10358e-08
2.11045e-08
2.11678e-08
2.12275e-08
2.12793e-08
2.13418e-08
2.13975e-08
2.14385e-08
2.14746e-08
2.15158e-08
2.15611e-08
2.15889e-08
2.16162e-08
2.16381e-08
2.16678e-08
2.16957e-08
2.17216e-08
2.175e-08
2.17789e-08
2.18114e-08
2.18403e-08
2.18731e-08
2.19043e-08
2.19386e-08
2.19757e-08
2.20132e-08
2.20494e-08
2.20975e-08
2.21534e-08
2.22079e-08
2.22716e-08
2.23301e-08
2.23801e-08
2.24493e-08
2.25372e-08
2.26189e-08
2.26896e-08
2.27465e-08
2.2818e-08
2.28957e-08
2.29625e-08
2.30168e-08
2.30726e-08
2.31373e-08
2.31975e-08
2.32457e-08
2.3288e-08
2.33377e-08
2.33882e-08
2.34311e-08
2.34616e-08
2.34903e-08
2.35234e-08
2.35505e-08
2.35706e-08
2.35853e-08
2.35955e-08
2.36038e-08
2.36057e-08
2.36023e-08
2.3593e-08
2.35769e-08
2.34811e-08
2.25514e-08
2.17164e-08
2.10164e-08
2.03241e-08
1.96111e-08
1.89532e-08
1.83912e-08
1.78608e-08
1.73156e-08
1.68182e-08
1.63538e-08
1.59247e-08
1.55129e-08
1.51063e-08
1.47284e-08
1.43978e-08
1.40796e-08
1.37647e-08
1.34683e-08
1.31939e-08
1.29348e-08
1.26949e-08
1.24849e-08
1.22627e-08
1.20481e-08
1.1857e-08
1.16882e-08
1.15194e-08
1.13508e-08
1.12038e-08
1.10614e-08
1.09371e-08
1.08152e-08
1.06937e-08
1.05874e-08
1.04817e-08
1.03814e-08
1.0304e-08
1.0227e-08
1.0147e-08
1.00755e-08
1.00097e-08
9.95113e-09
9.89427e-09
9.84967e-09
9.80889e-09
9.76681e-09
9.73102e-09
9.69973e-09
9.67266e-09
9.65405e-09
9.63928e-09
9.62201e-09
9.6076e-09
9.60055e-09
9.59944e-09
9.59823e-09
9.60094e-09
9.60719e-09
9.61561e-09
9.62775e-09
9.64402e-09
9.66157e-09
9.6787e-09
9.70185e-09
9.72928e-09
9.75679e-09
9.78732e-09
9.82006e-09
9.8557e-09
9.89226e-09
9.92991e-09
9.97025e-09
1.00168e-08
1.00625e-08
1.01075e-08
1.01559e-08
1.02077e-08
1.0261e-08
1.03144e-08
1.03697e-08
1.04267e-08
1.04854e-08
1.05461e-08
1.06083e-08
1.06726e-08
1.07391e-08
1.08059e-08
1.08735e-08
1.09421e-08
1.1012e-08
1.10835e-08
1.11568e-08
1.12313e-08
1.13077e-08
1.1385e-08
1.14628e-08
1.15421e-08
1.16227e-08
1.17043e-08
1.17878e-08
1.18727e-08
1.19581e-08
1.20444e-08
1.21319e-08
1.22207e-08
1.23108e-08
1.24024e-08
1.24953e-08
1.25894e-08
1.26858e-08
1.27847e-08
1.28864e-08
1.29906e-08
1.30971e-08
1.32062e-08
1.3318e-08
1.34322e-08
1.3549e-08
1.36685e-08
1.37442e-08
1.3677e-08
1.36111e-08
1.35465e-08
1.34832e-08
1.34212e-08
1.33604e-08
1.33008e-08
1.32424e-08
1.31851e-08
1.31291e-08
1.30742e-08
1.30205e-08
1.29679e-08
1.29163e-08
1.2866e-08
1.28168e-08
1.27686e-08
1.27215e-08
1.26754e-08
1.26304e-08
1.25864e-08
1.25434e-08
1.25014e-08
1.24603e-08
1.24202e-08
1.2381e-08
1.23426e-08
1.23051e-08
1.22683e-08
1.22322e-08
1.2197e-08
1.21625e-08
1.21287e-08
1.20956e-08
1.20632e-08
1.20314e-08
1.20002e-08
1.19698e-08
1.194e-08
1.19108e-08
1.18821e-08
1.1854e-08
1.18265e-08
1.17995e-08
1.1773e-08
1.17471e-08
1.17216e-08
1.16965e-08
1.16719e-08
1.16477e-08
1.1624e-08
1.16008e-08
1.1578e-08
1.15556e-08
1.15337e-08
1.1512e-08
1.14908e-08
1.14699e-08
1.14494e-08
1.14292e-08
1.14094e-08
1.139e-08
1.13709e-08
1.13521e-08
1.13336e-08
1.13154e-08
1.12975e-08
1.128e-08
1.12627e-08
1.12457e-08
1.1229e-08
1.12125e-08
1.11964e-08
1.11805e-08
1.11649e-08
1.11496e-08
1.11345e-08
1.11197e-08
1.11051e-08
1.10908e-08
1.10767e-08
1.10629e-08
1.10494e-08
1.10361e-08
1.1023e-08
1.10101e-08
1.09975e-08
1.09851e-08
1.0973e-08
1.09611e-08
1.09493e-08
1.09378e-08
1.09265e-08
1.09155e-08
1.09046e-08
1.0894e-08
1.08836e-08
1.08733e-08
1.08633e-08
1.08534e-08
1.08438e-08
1.08343e-08
1.08251e-08
1.0816e-08
1.08072e-08
1.07985e-08
1.07899e-08
1.07816e-08
1.07735e-08
1.07655e-08
1.07577e-08
1.07501e-08
1.07427e-08
1.07354e-08
1.07283e-08
1.07213e-08
1.07145e-08
1.07078e-08
1.07012e-08
1.06947e-08
1.06885e-08
1.06826e-08
1.06765e-08
1.06712e-08
1.06654e-08
1.06624e-08
1.06567e-08
1.06524e-08
1.06476e-08
1.0643e-08
1.06385e-08
1.0634e-08
1.06297e-08
1.06255e-08
1.06214e-08
1.06175e-08
1.06135e-08
1.06096e-08
1.06059e-08
1.06024e-08
1.05989e-08
1.05957e-08
1.05925e-08
1.05901e-08
1.05873e-08
1.05847e-08
1.05821e-08
1.05797e-08
1.05772e-08
1.05749e-08
1.05725e-08
1.05707e-08
1.05686e-08
1.05666e-08
1.05653e-08
1.05633e-08
1.0562e-08
1.05599e-08
1.05569e-08
1.05557e-08
1.05544e-08
1.05515e-08
1.05569e-08
1.0553e-08
1.05813e-08
1.05768e-08
1.05819e-08
1.05839e-08
1.05847e-08
1.05847e-08
1.05843e-08
1.05834e-08
1.05821e-08
1.05806e-08
1.05791e-08
1.05775e-08
1.0576e-08
1.05746e-08
1.05734e-08
1.05721e-08
1.05709e-08
1.05697e-08
1.05685e-08
1.05674e-08
1.05664e-08
1.05653e-08
1.05643e-08
1.05632e-08
1.05621e-08
1.0561e-08
1.05599e-08
1.05588e-08
1.05578e-08
1.05568e-08
1.05559e-08
1.0555e-08
1.05543e-08
1.05537e-08
1.05532e-08
1.05529e-08
1.05527e-08
1.05526e-08
1.05527e-08
1.05529e-08
1.05532e-08
1.05536e-08
1.0554e-08
1.05542e-08
1.05543e-08
1.05541e-08
1.05538e-08
1.05535e-08
1.05533e-08
1.05534e-08
1.0554e-08
1.05551e-08
1.05565e-08
1.05581e-08
1.05592e-08
1.05597e-08
1.05597e-08
1.05599e-08
1.0561e-08
1.05628e-08
1.05641e-08
1.05639e-08
1.0562e-08
1.05599e-08
1.0559e-08
1.05595e-08
1.05592e-08
1.05574e-08
1.05551e-08
1.05548e-08
1.05568e-08
1.05577e-08
1.05576e-08
1.05592e-08
1.05629e-08
1.0565e-08
1.05646e-08
1.05641e-08
1.05618e-08
1.05674e-08
1.05522e-08
1.91595e-09
3.69208e-09
8.99681e-09
5.23181e-09
5.71419e-09
9.08314e-09
8.55654e-09
7.8521e-09
7.70593e-09
7.64901e-09
7.54495e-09
7.42764e-09
7.34042e-09
7.30157e-09
7.22428e-09
7.09251e-09
7.04512e-09
7.07013e-09
7.00757e-09
7.00294e-09
7.01331e-09
7.02765e-09
6.93012e-09
6.83658e-09
6.95918e-09
7.02404e-09
7.13972e-09
7.00471e-09
6.68305e-09
6.35378e-09
6.49296e-09
7.36358e-09
7.89319e-09
7.76407e-09
7.14343e-09
6.70439e-09
7.28178e-09
7.93996e-09
8.10082e-09
7.61153e-09
7.35976e-09
7.94955e-09
8.57956e-09
8.69712e-09
8.36534e-09
7.98268e-09
8.14895e-09
8.6614e-09
9.10191e-09
9.21366e-09
9.47166e-09
9.68024e-09
1.00181e-08
1.03172e-08
1.1209e-08
1.18612e-08
1.12448e-08
1.05148e-08
1.0944e-08
1.29148e-08
1.33964e-08
1.19958e-08
1.16959e-08
1.25859e-08
1.54232e-08
1.65657e-08
1.75665e-08
1.95242e-08
1.87234e-08
1.81367e-08
2.0939e-08
2.43722e-08
2.44068e-08
2.93776e-08
3.03704e-08
2.29932e-08
2.6144e-08
2.42467e-08
3.14912e-08
2.46529e-08
2.08173e-08
3.17144e-08
3.16668e-08
8.45932e-08
3.191e-08
6.21531e-08
4.98266e-08
5.35315e-08
7.05923e-08
2.30097e-07
4.14067e-07
2.29541e-07
2.05727e-07
1.98687e-07
1.37776e-07
8.32439e-08
7.22802e-08
5.71197e-08
5.55497e-08
4.13592e-08
3.173e-08
2.56694e-08
3.06685e-08
5.04032e-08
5.68263e-08
8.10862e-08
8.32826e-08
2.09742e-07
8.84799e-07
6.60311e-07
1.58355e-07
1.38057e-07
1.19981e-07
1.10826e-07
1.09141e-07
8.22319e-08
9.87738e-08
6.98514e-08
4.70413e-08
3.39479e-08
3.96863e-08
7.67967e-08
9.22301e-08
1.25694e-07
1.56412e-07
7.24734e-07
7.06235e-07
2.32446e-07
3.58209e-07
4.12816e-07
4.92802e-07
5.46732e-07
7.18013e-07
7.22899e-07
7.46744e-07
5.17079e-07
5.90058e-07
7.03683e-07
7.11906e-07
5.42585e-07
3.6828e-07
5.10385e-07
4.49427e-07
2.80351e-07
2.65063e-07
3.05915e-07
2.86157e-07
2.09406e-07
1.8514e-07
2.08014e-07
1.93579e-07
1.75281e-07
1.83624e-07
1.70131e-07
1.49494e-07
1.46435e-07
1.53433e-07
1.53392e-07
1.38975e-07
1.2877e-07
1.26223e-07
1.30915e-07
1.31952e-07
1.2083e-07
1.12994e-07
1.13994e-07
1.17803e-07
1.15354e-07
1.07397e-07
1.04067e-07
1.09284e-07
1.11092e-07
1.03151e-07
1.00225e-07
1.05233e-07
1.04667e-07
1.01289e-07
1.02195e-07
1.03459e-07
1.03166e-07
1.01943e-07
1.02052e-07
1.01651e-07
1.0177e-07
1.03454e-07
1.05957e-07
1.07618e-07
1.07081e-07
1.07299e-07
1.08352e-07
1.09656e-07
1.10881e-07
1.12927e-07
1.16423e-07
1.19903e-07
1.2109e-07
1.20724e-07
1.24026e-07
1.29956e-07
1.34223e-07
1.37561e-07
1.39291e-07
1.41579e-07
1.50842e-07
1.57452e-07
1.62705e-07
1.64738e-07
1.69331e-07
1.83532e-07
1.93247e-07
1.99737e-07
2.05909e-07
2.24692e-07
2.3999e-07
2.54369e-07
2.75206e-07
2.92539e-07
3.17023e-07
3.42168e-07
3.64137e-07
4.2141e-07
4.79875e-07
5.47976e-07
6.2141e-07
6.77962e-07
8.57426e-07
1.09294e-06
1.16977e-06
1.17376e-06
1.17576e-06
1.17792e-06
1.17973e-06
1.18224e-06
9.91254e-07
8.5265e-07
7.48924e-07
6.5498e-07
6.00792e-07
5.64712e-07
5.06706e-07
4.49894e-07
4.18886e-07
4.01198e-07
3.76537e-07
3.52286e-07
3.3838e-07
3.33914e-07
3.21319e-07
3.0536e-07
2.93091e-07
2.85914e-07
2.78727e-07
2.7214e-07
2.67443e-07
2.62453e-07
2.56602e-07
2.52406e-07
2.51315e-07
2.50504e-07
2.44515e-07
2.40825e-07
2.38879e-07
2.37564e-07
2.36418e-07
2.34799e-07
2.33733e-07
2.32957e-07
2.31998e-07
2.31171e-07
2.30702e-07
2.30501e-07
2.30684e-07
2.31695e-07
2.3231e-07
2.32881e-07
2.32852e-07
2.33084e-07
2.33543e-07
2.34076e-07
2.34875e-07
2.36067e-07
2.37728e-07
2.3897e-07
2.39846e-07
2.41044e-07
2.42399e-07
2.43816e-07
2.45305e-07
2.46879e-07
2.48556e-07
2.50311e-07
2.52107e-07
2.54034e-07
2.5611e-07
2.58297e-07
2.60651e-07
2.63177e-07
2.65781e-07
2.68443e-07
2.71211e-07
2.7404e-07
2.76904e-07
2.79858e-07
2.82858e-07
2.85879e-07
2.88964e-07
2.92117e-07
2.95329e-07
2.98627e-07
3.02007e-07
3.05456e-07
3.08979e-07
3.12584e-07
3.16289e-07
3.20098e-07
3.2399e-07
3.27962e-07
3.32013e-07
3.36133e-07
3.4032e-07
3.44594e-07
3.49006e-07
3.53573e-07
3.5824e-07
3.62947e-07
3.67656e-07
3.72385e-07
3.77183e-07
3.82022e-07
3.86794e-07
3.91433e-07
3.95982e-07
4.00551e-07
4.05152e-07
4.09676e-07
4.14082e-07
4.18505e-07
4.23115e-07
4.27903e-07
4.3267e-07
4.37306e-07
4.41871e-07
4.46471e-07
4.511e-07
4.55684e-07
4.60242e-07
4.64835e-07
4.69434e-07
4.73997e-07
4.78572e-07
4.83223e-07
4.87906e-07
4.92571e-07
4.97271e-07
5.02063e-07
5.0689e-07
5.11688e-07
5.16522e-07
5.21527e-07
5.2674e-07
5.32035e-07
5.3733e-07
5.42684e-07
5.48204e-07
5.53899e-07
5.59671e-07
5.65444e-07
5.71199e-07
5.76967e-07
5.82769e-07
5.88618e-07
5.94578e-07
6.00773e-07
6.07306e-07
6.14129e-07
6.21033e-07
6.27898e-07
6.34874e-07
6.42181e-07
6.49815e-07
6.57673e-07
6.65863e-07
6.74553e-07
6.83672e-07
6.92946e-07
7.02189e-07
7.11339e-07
7.20419e-07
7.29707e-07
7.39535e-07
7.50147e-07
7.61581e-07
7.73626e-07
7.85909e-07
7.98146e-07
8.10301e-07
8.2242e-07
8.34757e-07
8.47593e-07
8.61051e-07
8.75106e-07
8.89625e-07
9.0415e-07
9.1824e-07
9.32424e-07
9.47887e-07
9.64879e-07
9.82958e-07
1.00182e-06
1.02092e-06
1.03956e-06
1.05759e-06
1.07442e-06
1.09302e-06
1.11001e-06
1.13235e-06
1.15337e-06
1.15337e-06
1.15336e-06
1.15343e-06
1.15353e-06
1.15334e-06
1.15315e-06
1.15288e-06
1.15285e-06
1.1534e-06
1.15347e-06
1.15383e-06
1.1544e-06
1.15497e-06
1.15522e-06
1.15511e-06
1.15552e-06
1.15552e-06
1.15546e-06
1.15509e-06
1.15493e-06
1.15511e-06
1.1551e-06
1.15562e-06
1.15528e-06
1.15442e-06
1.15451e-06
1.15464e-06
1.15519e-06
1.15498e-06
1.1552e-06
1.15592e-06
1.15628e-06
1.15656e-06
1.1561e-06
1.15648e-06
1.15585e-06
1.15559e-06
1.15507e-06
1.15578e-06
1.15636e-06
1.15544e-06
1.15684e-06
1.15719e-06
1.15472e-06
1.15479e-06
1.14966e-06
1.15218e-06
1.15361e-06
6.27872e-07
5.67545e-07
1.14951e-06
1.00833e-06
1.10641e-06
1.13209e-06
1.13912e-06
1.1407e-06
1.14228e-06
1.14345e-06
1.14324e-06
1.14251e-06
1.14221e-06
1.14228e-06
1.14241e-06
1.14335e-06
1.14542e-06
1.14747e-06
1.14855e-06
1.14873e-06
1.14893e-06
1.14984e-06
1.15122e-06
1.15246e-06
1.15314e-06
1.15323e-06
1.15279e-06
1.15204e-06
1.15124e-06
1.15064e-06
1.15037e-06
1.15045e-06
1.15093e-06
1.15187e-06
1.15327e-06
1.15508e-06
1.15685e-06
1.15722e-06
1.15726e-06
1.15729e-06
1.15729e-06
1.15727e-06
1.15725e-06
1.15723e-06
1.15723e-06
1.15723e-06
1.15723e-06
1.15721e-06
1.15718e-06
1.15694e-06
1.1565e-06
1.15659e-06
1.15705e-06
1.15723e-06
1.15727e-06
1.15728e-06
1.15728e-06
1.15724e-06
1.1572e-06
1.15695e-06
1.15608e-06
1.15717e-06
1.15735e-06
1.15734e-06
1.15715e-06
1.15127e-06
1.14536e-06
1.14819e-06
1.15566e-06
1.15661e-06
1.15087e-06
1.14395e-06
1.14832e-06
1.15708e-06
1.15724e-06
1.15604e-06
1.15569e-06
1.15734e-06
1.15732e-06
1.15692e-06
1.15103e-06
1.15379e-06
1.14598e-06
1.14592e-06
1.12949e-06
1.88052e-09
3.51106e-09
7.95228e-09
4.26902e-09
4.63195e-09
7.33983e-09
6.89618e-09
6.36954e-09
6.27377e-09
6.18832e-09
6.10061e-09
6.04057e-09
6.00415e-09
5.97181e-09
5.86677e-09
5.7689e-09
5.71167e-09
5.71563e-09
5.9295e-09
6.17538e-09
5.92886e-09
5.59832e-09
5.57649e-09
5.94297e-09
6.27826e-09
6.18343e-09
5.86012e-09
5.69931e-09
6.04012e-09
6.02266e-09
5.46712e-09
5.76234e-09
6.54522e-09
7.01317e-09
6.81866e-09
5.94816e-09
6.00479e-09
6.84642e-09
7.41695e-09
7.41879e-09
7.07191e-09
6.52115e-09
6.7512e-09
7.58766e-09
7.83985e-09
7.36462e-09
7.2068e-09
7.57801e-09
8.1317e-09
8.08229e-09
8.14214e-09
8.7709e-09
9.65233e-09
9.71948e-09
1.00651e-08
1.04983e-08
1.06036e-08
1.09647e-08
1.18586e-08
1.20996e-08
1.09398e-08
1.0937e-08
1.29734e-08
1.38357e-08
1.39674e-08
1.27485e-08
1.44528e-08
2.00856e-08
2.24921e-08
2.01548e-08
1.93611e-08
1.93442e-08
1.9973e-08
2.48921e-08
3.10692e-08
2.20907e-08
1.93212e-08
2.07115e-08
2.1554e-08
2.86332e-08
1.97811e-08
2.39952e-08
1.69579e-08
1.69877e-08
2.16237e-08
2.32695e-08
4.62516e-08
4.1219e-08
2.76322e-08
4.98081e-08
5.48943e-08
6.21419e-08
2.58841e-07
1.43937e-07
1.08088e-07
8.29234e-08
9.41154e-08
9.28859e-08
7.8119e-08
8.01075e-08
5.76845e-08
5.85155e-08
3.6402e-08
2.85352e-08
2.34672e-08
2.84539e-08
3.7682e-08
4.44683e-08
5.92041e-08
7.23473e-08
8.94651e-08
2.55576e-07
2.35444e-07
1.43148e-07
2.00623e-07
1.69849e-07
1.87562e-07
1.92618e-07
8.52475e-08
9.59041e-08
6.47226e-08
4.92151e-08
3.37026e-08
3.73238e-08
7.30798e-08
9.34749e-08
1.48434e-07
1.98479e-07
8.9081e-07
7.68816e-07
2.9964e-07
2.69897e-07
3.56028e-07
5.70928e-07
1.13609e-06
4.17332e-07
4.50814e-07
8.405e-07
5.41687e-07
3.27117e-07
3.70046e-07
5.98746e-07
3.48863e-07
2.4196e-07
2.94399e-07
3.08059e-07
2.31108e-07
1.82204e-07
1.96884e-07
2.14395e-07
1.92824e-07
1.87571e-07
1.59784e-07
1.38208e-07
1.48272e-07
1.58376e-07
1.5475e-07
1.38753e-07
1.27514e-07
1.31261e-07
1.2903e-07
1.21473e-07
1.19201e-07
1.16623e-07
1.14846e-07
1.14173e-07
1.10627e-07
1.10226e-07
1.07031e-07
1.06092e-07
1.06341e-07
1.03831e-07
1.02101e-07
1.01489e-07
1.04408e-07
1.01785e-07
9.8508e-08
1.01151e-07
1.02064e-07
1.01687e-07
9.99015e-08
1.00048e-07
1.00637e-07
1.01678e-07
1.02336e-07
1.03925e-07
1.04529e-07
1.05321e-07
1.05496e-07
1.06749e-07
1.07481e-07
1.10286e-07
1.11454e-07
1.13604e-07
1.19326e-07
1.21263e-07
1.19865e-07
1.22381e-07
1.27036e-07
1.30952e-07
1.36405e-07
1.37596e-07
1.41341e-07
1.48737e-07
1.54759e-07
1.56377e-07
1.61027e-07
1.73885e-07
1.82585e-07
1.88947e-07
1.94235e-07
2.06726e-07
2.20163e-07
2.34456e-07
2.48088e-07
2.67011e-07
2.90207e-07
3.0974e-07
3.35796e-07
3.67388e-07
4.01468e-07
4.28702e-07
5.1055e-07
6.04637e-07
6.77871e-07
7.72135e-07
9.08206e-07
1.03268e-06
1.22251e-06
1.45481e-06
1.37492e-06
1.16929e-06
9.91973e-07
8.75384e-07
7.86891e-07
7.02361e-07
6.18221e-07
5.78329e-07
5.47469e-07
4.72195e-07
4.21262e-07
4.07986e-07
3.93433e-07
3.75061e-07
3.49327e-07
3.37031e-07
3.28005e-07
3.10647e-07
2.98326e-07
2.90985e-07
2.84417e-07
2.76146e-07
2.68806e-07
2.63409e-07
2.58944e-07
2.5458e-07
2.53048e-07
2.52366e-07
2.47428e-07
2.42528e-07
2.39878e-07
2.3833e-07
2.36079e-07
2.34358e-07
2.33067e-07
2.32536e-07
2.32656e-07
2.31908e-07
2.31571e-07
2.31747e-07
2.31315e-07
2.30776e-07
2.29641e-07
2.29662e-07
2.31303e-07
2.32412e-07
2.32724e-07
2.33097e-07
2.33657e-07
2.34352e-07
2.35397e-07
2.36912e-07
2.38071e-07
2.39238e-07
2.40615e-07
2.42052e-07
2.43522e-07
2.45109e-07
2.46949e-07
2.48895e-07
2.50776e-07
2.5264e-07
2.54543e-07
2.56431e-07
2.58467e-07
2.60742e-07
2.63167e-07
2.65571e-07
2.68064e-07
2.70698e-07
2.7339e-07
2.76155e-07
2.79069e-07
2.82075e-07
2.85167e-07
2.88449e-07
2.9177e-07
2.95065e-07
2.9853e-07
3.02169e-07
3.05769e-07
3.09376e-07
3.13071e-07
3.16829e-07
3.20652e-07
3.24571e-07
3.28575e-07
3.32655e-07
3.36875e-07
3.41203e-07
3.45622e-07
3.50138e-07
3.54762e-07
3.59516e-07
3.64295e-07
3.68992e-07
3.73553e-07
3.78048e-07
3.82597e-07
3.8721e-07
3.91799e-07
3.96362e-07
4.01024e-07
4.05918e-07
4.11001e-07
4.15956e-07
4.20665e-07
4.2527e-07
4.2993e-07
4.34587e-07
4.39063e-07
4.43351e-07
4.47643e-07
4.52042e-07
4.56514e-07
4.6107e-07
4.65814e-07
4.70707e-07
4.75624e-07
4.80518e-07
4.85353e-07
4.90035e-07
4.94496e-07
4.98808e-07
5.03092e-07
5.07426e-07
5.1189e-07
5.16611e-07
5.21711e-07
5.27178e-07
5.32819e-07
5.38417e-07
5.43866e-07
5.49158e-07
5.54333e-07
5.59475e-07
5.64728e-07
5.70239e-07
5.76087e-07
5.82307e-07
5.88751e-07
5.9529e-07
6.01855e-07
6.08463e-07
6.15116e-07
6.21681e-07
6.28084e-07
6.34659e-07
6.41963e-07
6.50199e-07
6.59033e-07
6.68081e-07
6.77102e-07
6.85884e-07
6.94318e-07
7.02635e-07
7.11238e-07
7.20374e-07
7.30226e-07
7.40977e-07
7.52556e-07
7.64522e-07
7.76257e-07
7.87322e-07
7.9792e-07
8.08651e-07
8.20138e-07
8.32994e-07
8.47396e-07
8.62676e-07
8.77703e-07
8.91697e-07
9.04815e-07
9.17601e-07
9.31282e-07
9.47661e-07
9.66874e-07
9.86699e-07
1.00484e-06
1.02236e-06
1.03857e-06
1.05348e-06
1.07341e-06
1.10131e-06
1.12248e-06
1.13381e-06
1.1594e-06
1.1376e-06
1.17273e-06
1.2989e-06
1.33438e-06
1.37935e-06
1.41082e-06
1.82834e-06
1.85262e-06
1.48522e-06
1.50852e-06
1.45913e-06
1.4874e-06
1.43792e-06
1.47503e-06
1.56969e-06
1.60708e-06
1.6516e-06
1.65614e-06
1.69893e-06
1.77463e-06
1.84708e-06
1.88919e-06
1.9195e-06
1.95454e-06
2.13084e-06
2.1557e-06
2.04652e-06
2.08794e-06
2.11057e-06
2.14917e-06
2.12051e-06
2.21225e-06
2.2446e-06
2.36295e-06
2.53843e-06
2.59799e-06
2.38265e-06
2.72433e-06
2.97515e-06
1.9703e-06
2.45643e-06
2.95956e-06
4.54974e-06
1.41851e-06
1.41524e-06
5.22435e-07
5.51796e-07
1.8163e-06
1.73408e-06
1.77138e-06
1.64209e-06
1.62999e-06
2.80718e-06
5.13258e-06
6.19378e-06
5.74595e-06
6.52386e-06
7.98672e-06
8.8345e-06
8.85467e-06
9.0501e-06
9.10235e-06
8.73031e-06
8.45279e-06
8.6272e-06
8.92246e-06
8.76476e-06
8.10071e-06
7.34116e-06
6.80878e-06
6.49255e-06
6.31917e-06
6.30222e-06
6.43767e-06
6.60771e-06
6.70275e-06
6.6443e-06
6.42083e-06
6.08887e-06
5.74155e-06
5.45376e-06
5.27291e-06
5.21758e-06
5.28465e-06
5.43569e-06
5.59654e-06
5.68918e-06
5.65436e-06
5.49505e-06
5.28279e-06
5.10476e-06
5.02155e-06
5.05729e-06
5.20173e-06
5.4021e-06
5.57244e-06
5.64332e-06
5.63036e-06
5.63765e-06
5.76402e-06
6.0038e-06
6.20616e-06
6.1786e-06
5.94058e-06
5.70241e-06
5.58291e-06
5.65814e-06
6.01266e-06
6.5369e-06
7.22686e-06
8.56616e-06
9.1133e-06
9.11224e-06
7.80536e-06
6.44387e-06
6.81172e-06
9.11163e-06
9.11099e-06
9.03228e-06
6.07991e-06
6.5693e-06
9.11301e-06
9.11281e-06
9.11064e-06
8.15362e-06
9.11334e-06
9.11338e-06
9.11116e-06
8.98748e-06
9.10814e-06
4.77413e-06
5.98792e-06
6.21667e-06
1.88118e-09
3.46497e-09
7.77428e-09
4.23121e-09
4.54104e-09
7.08147e-09
6.55088e-09
6.02553e-09
5.96155e-09
5.88783e-09
5.8256e-09
5.80397e-09
5.79944e-09
5.76703e-09
5.67868e-09
5.62218e-09
5.59556e-09
5.65281e-09
5.90577e-09
6.04052e-09
5.78221e-09
5.52209e-09
5.59677e-09
5.99091e-09
6.20992e-09
6.01475e-09
5.68206e-09
5.78643e-09
6.40115e-09
6.76342e-09
6.1705e-09
5.61863e-09
5.71533e-09
6.2908e-09
6.96207e-09
6.75297e-09
6.24502e-09
6.29386e-09
6.63407e-09
7.29301e-09
7.41704e-09
6.43538e-09
6.34201e-09
6.90933e-09
7.56433e-09
7.73725e-09
7.5975e-09
7.6109e-09
7.63686e-09
7.69049e-09
8.14394e-09
8.93713e-09
9.524e-09
9.44645e-09
9.39359e-09
9.81413e-09
1.08394e-08
1.21299e-08
1.20348e-08
1.15284e-08
1.13942e-08
1.21885e-08
1.35081e-08
1.36518e-08
1.37874e-08
1.33336e-08
1.35213e-08
1.62037e-08
2.1805e-08
2.35528e-08
1.90451e-08
1.60073e-08
1.56805e-08
1.8257e-08
2.57743e-08
2.9567e-08
3.00912e-08
2.38168e-08
1.75162e-08
1.79363e-08
2.08699e-08
1.70123e-08
1.81976e-08
1.611e-08
3.03543e-08
2.22648e-08
1.52089e-08
1.31646e-08
1.48064e-08
1.77272e-08
3.45095e-08
2.56754e-08
3.82733e-08
6.62833e-08
1.03953e-07
2.07815e-07
1.39199e-07
1.0978e-07
8.92889e-08
1.49975e-07
1.64476e-07
9.26251e-08
7.20069e-08
5.1004e-08
6.5081e-08
4.72105e-08
3.01222e-08
2.42615e-08
2.17678e-08
2.65463e-08
4.14085e-08
4.04907e-08
5.76063e-08
8.75803e-08
2.67807e-07
2.87121e-07
1.86715e-07
1.8352e-07
2.84222e-07
2.54623e-07
2.56703e-07
8.74455e-08
7.67793e-08
5.83311e-08
4.90215e-08
3.36924e-08
3.94904e-08
8.03024e-08
9.3057e-08
1.45216e-07
2.46097e-07
4.22985e-07
4.52357e-07
2.70875e-07
2.81716e-07
2.47891e-07
4.29065e-07
7.38329e-07
3.47185e-07
2.71137e-07
3.63705e-07
4.44011e-07
2.77742e-07
2.47405e-07
2.86227e-07
2.3851e-07
1.94834e-07
1.96946e-07
2.27072e-07
1.96546e-07
1.72736e-07
1.79464e-07
1.51924e-07
1.3389e-07
1.46729e-07
1.57404e-07
1.47424e-07
1.29753e-07
1.22205e-07
1.30013e-07
1.3287e-07
1.17128e-07
1.09281e-07
1.12041e-07
1.18627e-07
1.15901e-07
1.05121e-07
1.03654e-07
1.07706e-07
1.10199e-07
1.0249e-07
9.85717e-08
1.04205e-07
1.03822e-07
9.95486e-08
9.87621e-08
1.00653e-07
1.01323e-07
9.84795e-08
9.8452e-08
9.92607e-08
9.96815e-08
1.00135e-07
1.01379e-07
1.02387e-07
1.02535e-07
1.0106e-07
1.02898e-07
1.0476e-07
1.06019e-07
1.07037e-07
1.09564e-07
1.10599e-07
1.11586e-07
1.15942e-07
1.2025e-07
1.21147e-07
1.22576e-07
1.2374e-07
1.27606e-07
1.3445e-07
1.3682e-07
1.41779e-07
1.43775e-07
1.48195e-07
1.5291e-07
1.62687e-07
1.77883e-07
1.78902e-07
1.81593e-07
1.92398e-07
2.07292e-07
2.13003e-07
2.25423e-07
2.39688e-07
2.60608e-07
2.79819e-07
2.95978e-07
3.25925e-07
3.59496e-07
3.822e-07
4.07096e-07
4.54792e-07
5.33137e-07
6.21745e-07
6.86145e-07
7.5486e-07
8.02528e-07
9.04993e-07
9.83177e-07
9.68469e-07
8.76195e-07
8.14711e-07
7.42567e-07
6.80621e-07
6.43592e-07
5.87671e-07
5.38058e-07
4.80516e-07
4.31046e-07
4.09863e-07
4.08403e-07
3.80571e-07
3.60616e-07
3.47394e-07
3.34849e-07
3.13234e-07
2.95982e-07
2.90687e-07
2.89981e-07
2.81841e-07
2.74061e-07
2.67566e-07
2.60815e-07
2.56479e-07
2.53987e-07
2.52079e-07
2.4769e-07
2.41294e-07
2.40606e-07
2.39281e-07
2.37489e-07
2.3559e-07
2.33407e-07
2.31908e-07
2.31426e-07
2.31818e-07
2.31534e-07
2.31587e-07
2.32e-07
2.31713e-07
2.30597e-07
2.27998e-07
2.27457e-07
2.295e-07
2.31402e-07
2.32269e-07
2.33008e-07
2.3373e-07
2.34432e-07
2.35129e-07
2.35799e-07
2.36985e-07
2.38675e-07
2.40233e-07
2.41781e-07
2.43394e-07
2.45121e-07
2.47048e-07
2.49059e-07
2.50959e-07
2.52811e-07
2.54744e-07
2.56662e-07
2.58658e-07
2.60809e-07
2.63034e-07
2.65295e-07
2.67684e-07
2.70186e-07
2.72799e-07
2.75557e-07
2.78457e-07
2.81503e-07
2.8469e-07
2.88052e-07
2.91475e-07
2.94911e-07
2.98521e-07
3.02257e-07
3.05956e-07
3.09654e-07
3.13435e-07
3.17263e-07
3.21117e-07
3.25052e-07
3.29099e-07
3.33281e-07
3.3765e-07
3.42145e-07
3.46708e-07
3.51283e-07
3.55868e-07
3.60552e-07
3.65302e-07
3.70007e-07
3.74535e-07
3.78915e-07
3.83328e-07
3.87923e-07
3.92611e-07
3.97258e-07
4.01952e-07
4.06933e-07
4.12299e-07
4.17684e-07
4.2266e-07
4.27176e-07
4.31568e-07
4.36009e-07
4.40351e-07
4.44524e-07
4.48689e-07
4.53032e-07
4.57535e-07
4.62151e-07
4.66959e-07
4.71936e-07
4.76943e-07
4.81892e-07
4.86726e-07
4.91368e-07
4.95764e-07
4.9997e-07
5.04141e-07
5.08384e-07
5.12786e-07
5.17445e-07
5.22456e-07
5.27816e-07
5.33372e-07
5.38897e-07
5.44198e-07
5.49203e-07
5.54021e-07
5.58876e-07
5.64014e-07
5.69568e-07
5.75535e-07
5.81891e-07
5.88547e-07
5.95316e-07
6.01934e-07
6.08318e-07
6.14649e-07
6.21095e-07
6.27648e-07
6.34495e-07
6.42074e-07
6.50473e-07
6.59214e-07
6.67831e-07
6.76257e-07
6.84521e-07
6.92721e-07
7.01275e-07
7.10636e-07
7.20828e-07
7.31572e-07
7.42693e-07
7.53988e-07
7.65146e-07
7.75797e-07
7.85878e-07
7.95997e-07
8.06953e-07
8.19109e-07
8.32644e-07
8.47269e-07
8.62168e-07
8.76254e-07
8.89176e-07
9.02328e-07
9.1656e-07
9.31334e-07
9.46956e-07
9.65849e-07
9.82438e-07
1.00259e-06
1.02642e-06
1.0473e-06
1.06386e-06
1.06956e-06
1.09282e-06
1.07439e-06
1.11127e-06
1.24695e-06
1.28203e-06
1.30702e-06
1.33284e-06
1.75992e-06
1.78525e-06
1.39994e-06
1.42843e-06
1.39524e-06
1.40846e-06
1.34076e-06
1.35858e-06
1.43891e-06
1.46714e-06
1.52039e-06
1.54379e-06
1.58941e-06
1.68251e-06
1.72805e-06
1.7307e-06
1.81181e-06
1.86692e-06
2.0512e-06
2.08202e-06
1.93656e-06
1.95519e-06
1.96734e-06
2.01189e-06
1.96905e-06
2.05966e-06
2.06882e-06
2.17361e-06
2.42318e-06
2.4605e-06
2.06451e-06
2.24088e-06
1.52017e-06
1.93418e-06
3.31937e-06
3.03955e-06
5.43867e-06
1.38102e-06
1.40621e-06
4.78429e-07
4.71752e-07
1.61788e-06
1.20136e-06
1.22796e-06
1.29984e-06
1.39045e-06
1.28625e-06
1.65678e-06
1.91521e-06
2.63948e-06
3.33773e-06
3.51897e-06
3.94026e-06
4.41145e-06
4.64101e-06
4.63514e-06
4.72628e-06
4.9356e-06
5.05115e-06
5.1019e-06
5.27077e-06
5.57242e-06
5.82191e-06
5.85438e-06
5.70875e-06
5.53694e-06
5.44396e-06
5.45312e-06
5.56781e-06
5.76844e-06
6.00229e-06
6.18795e-06
6.24298e-06
6.12043e-06
5.85693e-06
5.54646e-06
5.28165e-06
5.12389e-06
5.10132e-06
5.22299e-06
5.46834e-06
5.78031e-06
6.05326e-06
6.16647e-06
6.07116e-06
5.82642e-06
5.55185e-06
5.34793e-06
5.26332e-06
5.29963e-06
5.42291e-06
5.56299e-06
5.63488e-06
5.60132e-06
5.54563e-06
5.61514e-06
5.89189e-06
6.30445e-06
6.56105e-06
6.37313e-06
5.94815e-06
5.64177e-06
5.56016e-06
5.78247e-06
6.46884e-06
7.54208e-06
8.6876e-06
9.74016e-06
9.40419e-06
8.0174e-06
6.87022e-06
6.6521e-06
8.43561e-06
9.98683e-06
9.41281e-06
6.36109e-06
5.97889e-06
9.97005e-06
9.98694e-06
9.9868e-06
9.86078e-06
9.98698e-06
9.98705e-06
9.98683e-06
8.48035e-06
7.38055e-06
9.98672e-06
4.65864e-06
5.72715e-06
5.77168e-06
1.86327e-09
3.43583e-09
7.74206e-09
4.26318e-09
4.51183e-09
6.8763e-09
6.30254e-09
5.774e-09
5.71377e-09
5.68234e-09
5.64183e-09
5.61677e-09
5.60599e-09
5.60581e-09
5.60322e-09
5.60474e-09
5.60136e-09
5.63647e-09
5.75243e-09
5.8091e-09
5.7207e-09
5.63734e-09
5.70165e-09
5.87234e-09
5.94911e-09
5.87807e-09
5.77348e-09
5.91878e-09
6.31638e-09
6.69926e-09
6.58958e-09
6.0954e-09
5.86513e-09
6.05084e-09
6.48999e-09
6.59058e-09
6.38347e-09
6.27958e-09
6.35405e-09
6.63445e-09
6.84596e-09
6.54429e-09
6.42749e-09
6.65741e-09
7.277e-09
7.71202e-09
7.66251e-09
7.54839e-09
7.63725e-09
7.94231e-09
8.24131e-09
8.44946e-09
8.78594e-09
9.19173e-09
9.11352e-09
9.67789e-09
1.15328e-08
1.26193e-08
1.13722e-08
1.12698e-08
1.27432e-08
1.4278e-08
1.35147e-08
1.23431e-08
1.33676e-08
1.55783e-08
1.47847e-08
1.3742e-08
1.55953e-08
1.99283e-08
2.15114e-08
1.80476e-08
1.50164e-08
1.46508e-08
1.91715e-08
2.43704e-08
2.47132e-08
2.35562e-08
2.15642e-08
2.46729e-08
3.16534e-08
2.67836e-08
2.12149e-08
2.16036e-08
2.08546e-08
1.98329e-08
1.5499e-08
1.31492e-08
1.78223e-08
1.61509e-08
1.37607e-08
1.23359e-08
1.43229e-08
2.42247e-08
2.38616e-08
3.4574e-08
7.16493e-08
1.10566e-07
1.63122e-07
1.50512e-07
1.58225e-07
1.15472e-07
2.0399e-07
2.05777e-07
1.8892e-07
1.0807e-07
5.18106e-08
4.35392e-08
4.79805e-08
3.41482e-08
2.58237e-08
2.05757e-08
2.51596e-08
4.30209e-08
4.61717e-08
5.93054e-08
8.68933e-08
4.69362e-07
7.99418e-07
1.60871e-07
1.91532e-07
3.48501e-07
3.93839e-07
3.08719e-07
8.97753e-08
8.10029e-08
6.20579e-08
4.92318e-08
3.33587e-08
3.92744e-08
8.60181e-08
1.07479e-07
1.5406e-07
2.46983e-07
4.97768e-07
2.39241e-07
2.07169e-07
2.00186e-07
2.12768e-07
3.4747e-07
4.46774e-07
3.29132e-07
2.24984e-07
2.17565e-07
2.39441e-07
2.20431e-07
2.0165e-07
1.97412e-07
2.01914e-07
1.80194e-07
1.6576e-07
1.64906e-07
1.46411e-07
1.44672e-07
1.47613e-07
1.47572e-07
1.35411e-07
1.19906e-07
1.19467e-07
1.25427e-07
1.27268e-07
1.16918e-07
1.07721e-07
1.11199e-07
1.16948e-07
1.09725e-07
1.01586e-07
1.02422e-07
1.07525e-07
1.08086e-07
1.00273e-07
9.71359e-08
1.0208e-07
1.029e-07
9.7073e-08
9.76052e-08
1.00235e-07
9.91764e-08
9.6185e-08
9.65683e-08
9.92451e-08
9.80349e-08
9.81966e-08
1.00294e-07
1.01391e-07
9.996e-08
9.83155e-08
1.01707e-07
1.04946e-07
1.05153e-07
1.05564e-07
1.08173e-07
1.10581e-07
1.10789e-07
1.10474e-07
1.15169e-07
1.20903e-07
1.23007e-07
1.22971e-07
1.24974e-07
1.29938e-07
1.35914e-07
1.39926e-07
1.40634e-07
1.44717e-07
1.52437e-07
1.6149e-07
1.69416e-07
1.73161e-07
1.78796e-07
1.89104e-07
2.00328e-07
2.08845e-07
2.2143e-07
2.32229e-07
2.47401e-07
2.66597e-07
2.82259e-07
3.13109e-07
3.36638e-07
3.56888e-07
3.91685e-07
4.11732e-07
4.65682e-07
5.24274e-07
5.83997e-07
6.46105e-07
6.55036e-07
7.18828e-07
7.57549e-07
7.44337e-07
7.03593e-07
6.69301e-07
6.2267e-07
6.03971e-07
5.73995e-07
5.35153e-07
4.91622e-07
4.31776e-07
4.10833e-07
4.16043e-07
4.02392e-07
3.59989e-07
3.38724e-07
3.35202e-07
3.24104e-07
2.99477e-07
2.90585e-07
2.90102e-07