/*--------------------------------*- C++ -*----------------------------------*\
| =========                 |                                                 |
| \\      /  F ield         | OpenFOAM: The Open Source CFD Toolbox           |
|  \\    /   O peration     | Version:  v2006                                 |
|   \\  /    A nd           | Website:  www.openfoam.com                      |
|    \\/     M anipulation  |                                                 |
\*---------------------------------------------------------------------------*/
FoamFile
{
    version     2.0;
    format      ascii;
    class       volScalarField;
    location    "2.4";
    object      omega;
}
// * * * * * * * * * * * * * * * * * * * * * * * * * * * * * * * * * * * * * //

dimensions      [0 0 -1 0 0 0 0];


internalField   nonuniform List<scalar> 
33000
(
0.801645
0.802436
0.803289
0.803924
0.804289
0.804458
0.804527
0.804553
0.804564
0.80457
0.804574
0.804574
0.804569
0.804562
0.804556
0.804553
0.804554
0.804558
0.804567
0.804574
0.804575
0.804576
0.804582
0.804594
0.804615
0.804627
0.804631
0.804641
0.80466
0.804669
0.804671
0.804678
0.80469
0.804707
0.804725
0.804717
0.804707
0.804721
0.804744
0.80475
0.804742
0.804723
0.804703
0.804703
0.804694
0.804663
0.804625
0.804601
0.804584
0.804554
0.804523
0.804496
0.804484
0.804473
0.804456
0.804439
0.804427
0.804414
0.804385
0.804349
0.804313
0.804297
0.804289
0.804262
0.804231
0.804198
0.80418
0.804173
0.804146
0.804116
0.804085
0.804033
0.803952
0.803846
0.803753
0.803596
0.803413
0.803246
0.803191
0.803133
0.803157
0.803163
0.803191
0.803195
0.803209
0.803191
0.803157
0.80315
0.803143
0.803136
0.803116
0.803086
0.803049
0.803008
0.802966
0.802897
0.80282
0.802688
0.802595
0.80242
0.802408
0.802364
0.802385
0.802358
0.802357
0.802365
0.802353
0.802332
0.802318
0.802309
0.802299
0.802285
0.802273
0.802241
0.802216
0.80215
0.802129
0.802051
0.802062
0.802082
0.802092
0.802089
0.802096
0.802102
0.802108
0.802113
0.802119
0.802125
0.802129
0.802132
0.802136
0.80214
0.802143
0.802146
0.802148
0.802151
0.802153
0.802156
0.802159
0.802162
0.802165
0.802168
0.802172
0.802175
0.802178
0.802182
0.802186
0.80219
0.802195
0.802201
0.802206
0.802213
0.802219
0.802224
0.802231
0.80224
0.802248
0.802254
0.80226
0.802266
0.802274
0.80228
0.802285
0.80229
0.802296
0.802302
0.802306
0.80231
0.802315
0.802319
0.802323
0.802326
0.802328
0.802331
0.802333
0.802335
0.802336
0.802336
0.802336
0.802336
0.802335
0.802334
0.802332
0.80233
0.802327
0.802323
0.802319
0.802315
0.802309
0.802304
0.802297
0.802291
0.802283
0.802275
0.802267
0.802258
0.802248
0.802238
0.802229
0.802219
0.80221
0.802201
0.802191
0.802182
0.802173
0.802163
0.802154
0.802145
0.802136
0.802127
0.802118
0.802109
0.8021
0.802092
0.802083
0.802074
0.802066
0.802057
0.802049
0.80204
0.802032
0.802023
0.802015
0.802007
0.801999
0.80199
0.801982
0.801974
0.801966
0.801958
0.80195
0.801942
0.801934
0.801926
0.801918
0.80191
0.801902
0.801894
0.801886
0.801878
0.80187
0.801862
0.801854
0.801846
0.801838
0.80183
0.801823
0.801815
0.801807
0.801799
0.801791
0.801783
0.801775
0.801767
0.801759
0.801751
0.801743
0.801735
0.801727
0.801719
0.801711
0.801703
0.801695
0.801687
0.801679
0.801671
0.801662
0.801654
0.801646
0.801638
0.80163
0.801621
0.801613
0.801605
0.801597
0.801588
0.80158
0.801572
0.801563
0.801555
0.801547
0.801538
0.80153
0.801522
0.801513
0.801505
0.801497
0.801488
0.80148
0.801471
0.801463
0.801454
0.801446
0.801437
0.801429
0.801421
0.801413
0.801406
0.801398
0.801391
0.801383
0.801376
0.801369
0.801363
0.801356
0.801349
0.801343
0.801337
0.80133
0.801324
0.801319
0.801313
0.801307
0.801302
0.801296
0.801291
0.801286
0.80128
0.801275
0.801271
0.801266
0.801261
0.801256
0.801252
0.801248
0.801243
0.801239
0.801235
0.801231
0.801227
0.801223
0.80122
0.801216
0.801213
0.801209
0.801206
0.801202
0.801199
0.801196
0.801193
0.80119
0.801187
0.801184
0.801181
0.801178
0.801175
0.801172
0.80117
0.801167
0.801165
0.801162
0.80116
0.801157
0.801155
0.801153
0.80115
0.801148
0.801146
0.801144
0.801142
0.80114
0.801137
0.801135
0.801133
0.801132
0.80113
0.801128
0.801126
0.801124
0.801122
0.801121
0.801119
0.801117
0.801116
0.801114
0.801112
0.801111
0.801109
0.801108
0.801106
0.801105
0.801103
0.801102
0.8011
0.801099
0.801098
0.801096
0.801095
0.801094
0.801093
0.801091
0.80109
0.801089
0.801088
0.801087
0.801085
0.801084
0.801083
0.801082
0.801081
0.80108
0.801079
0.801078
0.801077
0.801076
0.801075
0.801074
0.801074
0.801073
0.801072
0.801071
0.80107
0.801069
0.801069
0.801068
0.801067
0.801066
0.801066
0.801065
0.801064
0.801064
0.801063
0.801062
0.801062
0.801061
0.80106
0.80106
0.801059
0.801059
0.801058
0.801058
0.801057
0.801057
0.801057
0.801056
0.801056
0.801055
0.801055
0.801054
0.801054
0.801054
0.801053
0.801053
0.801053
0.801052
0.801052
0.801052
0.801051
0.801051
0.801051
0.801051
0.80105
0.80105
0.80105
0.80105
0.801049
0.801049
0.801049
0.801049
0.801049
0.801049
0.801048
0.801048
0.801048
0.801048
0.801048
0.801048
0.801048
0.801048
0.801051
0.801051
0.801051
0.801051
0.801051
0.801051
0.801051
0.801051
0.801051
0.801051
0.80105
0.80105
0.80105
0.80105
0.80105
0.80105
0.801049
0.801049
0.801049
0.801049
0.801049
0.801049
0.801049
0.801049
0.801049
0.801048
0.801048
0.801048
0.801048
0.801048
0.801048
0.801048
0.801048
0.801048
0.801048
0.801048
0.801048
0.801048
0.801048
0.801048
0.801048
0.801048
0.801048
0.801048
0.801048
0.801048
0.801048
0.801048
0.801048
0.801048
0.801048
0.801048
0.801048
0.801048
0.801048
0.801048
0.801048
0.801048
0.801049
0.801049
0.801049
0.801049
0.801049
0.801048
0.801048
0.801048
0.801048
0.801048
0.801048
0.801048
0.801048
0.801048
0.801048
0.801048
0.801049
0.801049
0.801049
0.801049
0.801049
0.801049
0.801048
0.0222523
0.0493631
0.0712298
0.0880371
0.0959881
0.0975756
0.0975957
0.0967729
0.0952076
0.0936665
0.0930259
0.0929553
0.0928208
0.0919978
0.0895856
0.0867988
0.0851377
0.0856295
0.0886969
0.0909164
0.0868308
0.0796243
0.0763157
0.0796718
0.083316
0.0812114
0.0749096
0.0714896
0.0767178
0.0781936
0.069995
0.0636876
0.0648702
0.0694629
0.0707293
0.0603221
0.0535211
0.0567941
0.0612449
0.0626851
0.0597874
0.0472641
0.0419003
0.0479943
0.0509557
0.0452659
0.0392179
0.0396794
0.0417957
0.0380072
0.0324324
0.0302214
0.0322726
0.0316205
0.0292206
0.027581
0.0307337
0.0325318
0.0310524
0.0260833
0.022839
0.0247884
0.0282548
0.0249381
0.0201753
0.0165723
0.0162648
0.0175151
0.0155719
0.0145237
0.0149786
0.0143046
0.0134819
0.0135542
0.0149362
0.0153476
0.0149567
0.0140384
0.0128913
0.0131345
0.0156964
0.0198101
0.0230311
0.0212545
0.0193054
0.0119551
0.0109982
0.01272
0.0131665
0.0131851
0.0120734
0.0110681
0.00995046
0.00945787
0.00887022
0.00860663
0.00855033
0.00853276
0.00847429
0.00858756
0.00939335
0.0121485
0.0141091
0.0122197
0.0147512
0.0140088
0.011275
0.010824
0.0114268
0.0116158
0.0110022
0.0106752
0.00950931
0.00851616
0.00840177
0.00842692
0.00838291
0.00831316
0.00864937
0.0119665
0.015413
0.0132611
0.0175745
0.0166867
0.0135591
0.0139821
0.0136573
0.0140555
0.0146806
0.0139302
0.0131407
0.0139583
0.0140981
0.0139976
0.0135449
0.0134103
0.0144272
0.0143867
0.0142187
0.0137684
0.0146404
0.0146207
0.0144894
0.0145374
0.0148008
0.014644
0.0143515
0.0142624
0.014833
0.0147102
0.0147132
0.0146943
0.0140823
0.0139453
0.0145442
0.0146064
0.0143412
0.0139215
0.0139389
0.0143267
0.0142624
0.0139296
0.0137001
0.0140193
0.014087
0.013907
0.0135939
0.0137008
0.013818
0.0137925
0.0135187
0.0132704
0.0134171
0.0134731
0.0132704
0.0131138
0.0129909
0.0129877
0.0128966
0.0128049
0.0127136
0.0125525
0.0124644
0.0124205
0.0122938
0.0121258
0.011954
0.0119715
0.0118844
0.0117514
0.0115411
0.0115119
0.0114193
0.0112837
0.0111656
0.0110388
0.0109641
0.0108591
0.0107207
0.0105704
0.0105163
0.0104233
0.0103326
0.0102059
0.0101003
0.00995872
0.00987027
0.00986451
0.00972844
0.00962079
0.00950541
0.0094828
0.00938133
0.00929817
0.00921224
0.0091236
0.00909848
0.00902832
0.00896769
0.00891854
0.00883694
0.00876283
0.00875717
0.00871581
0.00868085
0.0086367
0.00860258
0.00856923
0.00853999
0.00852546
0.00850998
0.00849705
0.00847917
0.00846476
0.00845448
0.00844695
0.00844048
0.00843583
0.00843214
0.0084275
0.00842259
0.00841936
0.00841722
0.00841468
0.00841278
0.00841155
0.00841067
0.00840922
0.00840775
0.00840698
0.0084063
0.00840507
0.00840361
0.00840254
0.00840187
0.00840116
0.00839992
0.00839821
0.00839663
0.00839549
0.00839514
0.00839488
0.00839482
0.00839494
0.00839505
0.00839484
0.00839449
0.00839423
0.008394
0.00839332
0.00839257
0.0083922
0.00839232
0.00839246
0.00839285
0.00839348
0.00839427
0.00839513
0.00839635
0.00839787
0.00839925
0.00840046
0.00840109
0.00840094
0.00840048
0.00840002
0.00839952
0.00839866
0.00839764
0.00839688
0.00839661
0.00839685
0.0083973
0.00839851
0.00840046
0.008403
0.00840556
0.00840801
0.00841047
0.00841298
0.00841517
0.00841719
0.00841898
0.00842039
0.00842138
0.00842194
0.00842258
0.00842344
0.00842447
0.00842586
0.00842776
0.00843005
0.00843266
0.00843565
0.00843881
0.00844192
0.00844513
0.00844828
0.00845131
0.00845441
0.00845753
0.00846061
0.00846389
0.00846714
0.00847065
0.00847488
0.00847982
0.00848548
0.00849099
0.00849588
0.00850011
0.00850385
0.00850739
0.00851018
0.00851206
0.00851358
0.00851588
0.00851939
0.00852349
0.00852765
0.00853196
0.00853688
0.00854216
0.00854702
0.008551
0.00855424
0.0085572
0.00855965
0.00856174
0.00856377
0.00856635
0.00856935
0.00857277
0.00857677
0.00858111
0.00858524
0.00858837
0.00859074
0.00859257
0.00859411
0.00859531
0.00859651
0.00859836
0.00860112
0.00860465
0.00860816
0.00861147
0.00861422
0.00861627
0.00861746
0.00861779
0.00861794
0.00861846
0.00861958
0.00862126
0.00862299
0.0086246
0.00862627
0.00862778
0.00862847
0.00862829
0.00862788
0.00862804
0.00862933
0.00863158
0.00863448
0.00863719
0.00863904
0.00863997
0.00864018
0.00864019
0.00864069
0.00864203
0.00864448
0.00864749
0.00865067
0.00865329
0.0086546
0.00865445
0.00865326
0.00865242
0.00865271
0.00865382
0.008655
0.00865605
0.00865689
0.0086567
0.00865582
0.00865543
0.00865606
0.00865734
0.00865841
0.0086584
0.00865733
0.00865618
0.00865529
0.00865447
0.00865438
0.00865446
0.00865388
0.00865309
0.00865446
0.00865578
0.00865768
0.00865787
0.0086537
0.00865301
0.00865032
0.00864618
0.0086419
0.00863999
0.00864077
0.00863768
0.00863764
0.0086381
0.00864079
0.008642
0.0086406
0.00864065
0.00863679
0.00863926
0.00864565
0.008645
0.00864401
0.00863982
0.00864139
0.00863979
0.00863436
0.00863168
0.0086296
0.00863297
0.00863012
0.00863479
0.00863668
0.00864054
0.00863524
0.00863088
0.00863777
0.00862734
0.00862481
0.00864316
0.00864262
0.00868105
0.00866261
0.00865181
0.00864577
0.00862096
0.0086831
0.00881048
0.00880981
0.00881711
0.00876246
0.00875019
0.00873801
0.00872897
0.00873049
0.00873595
0.00873819
0.00873757
0.00873654
0.0087293
0.00871356
0.00869792
0.00868972
0.00868837
0.00868679
0.00867991
0.0086695
0.00866019
0.00865504
0.00865438
0.00865766
0.00866331
0.0086693
0.00867384
0.00867586
0.0086752
0.00867162
0.00866457
0.00865409
0.00864052
0.00862737
0.00862459
0.00862425
0.00862408
0.00862407
0.00862419
0.00862437
0.0086245
0.00862452
0.00862449
0.00862448
0.00862459
0.00862486
0.00862663
0.00862985
0.0086292
0.00862575
0.00862444
0.00862417
0.00862407
0.00862412
0.00862436
0.00862472
0.00862656
0.00863303
0.0086249
0.00862359
0.00862362
0.00862504
0.00866898
0.00871366
0.00869223
0.00863611
0.00862907
0.00867202
0.00872439
0.00869123
0.00862554
0.00862439
0.00863328
0.0086359
0.00862365
0.00862375
0.00862678
0.00867083
0.00865009
0.00870898
0.00870957
0.00883598
0.00295947
0.00641002
0.00937494
0.0117109
0.0126908
0.0126793
0.0124545
0.0121938
0.011878
0.0115717
0.0114127
0.0113527
0.011277
0.011084
0.0106928
0.0102738
0.0099761
0.00994024
0.0102804
0.0104789
0.009859
0.00886835
0.00838607
0.00871414
0.00901637
0.00867774
0.00782636
0.00743344
0.00806806
0.00833972
0.00730366
0.00623475
0.00603103
0.00644053
0.00669587
0.00579649
0.00494907
0.00498237
0.00529172
0.00548488
0.00529725
0.00403519
0.00346305
0.00378891
0.00406285
0.00368998
0.00319858
0.00312923
0.00318083
0.00288625
0.0025029
0.00234244
0.00240771
0.00233909
0.00215664
0.00205023
0.00220101
0.00233365
0.00224336
0.00190922
0.00176511
0.00187436
0.00203304
0.00185471
0.00159282
0.00146998
0.00145198
0.0014664
0.00142377
0.00140686
0.00140665
0.00137514
0.00136579
0.00136182
0.00138662
0.00139691
0.00142763
0.00147974
0.00155546
0.0016802
0.00192414
0.00219437
0.00249928
0.00269495
0.00249936
0.00203553
0.0017606
0.00167911
0.00147304
0.00128792
0.00117399
0.00114809
0.00111701
0.00112378
0.00111312
0.00110674
0.00109511
0.0010958
0.00110588
0.0011093
0.00113244
0.00114214
0.00118846
0.00124129
0.00134554
0.00132365
0.00122367
0.00120629
0.00121532
0.0011972
0.0011513
0.00112641
0.00110562
0.00108714
0.00107896
0.00108519
0.00109215
0.00108747
0.00110119
0.00109918
0.00112077
0.0011748
0.00133837
0.00134201
0.001213
0.00126592
0.00123827
0.00120738
0.00122578
0.00120938
0.00118645
0.00120603
0.00120487
0.00119942
0.00119352
0.00119671
0.00122033
0.00121425
0.00121365
0.00120897
0.00122956
0.00122333
0.00122148
0.00123036
0.00123398
0.00122597
0.00122113
0.00122451
0.00123686
0.00122905
0.00122897
0.00123022
0.00121624
0.00121389
0.00122608
0.00122662
0.00121841
0.00120922
0.00121075
0.00121886
0.00121728
0.00120883
0.00120214
0.00120904
0.00121209
0.00120702
0.00119811
0.00119899
0.00120289
0.00120267
0.0011936
0.00118733
0.00119111
0.00119246
0.00118457
0.00118104
0.00117929
0.00117718
0.00117365
0.00117091
0.00116889
0.00116491
0.00116234
0.00116033
0.00115658
0.00115177
0.00114746
0.00114672
0.00114434
0.00114102
0.0011366
0.00113477
0.00113186
0.00112802
0.00112451
0.0011216
0.00112011
0.00111709
0.00111333
0.00110988
0.00110775
0.00110565
0.00110364
0.00110019
0.0010976
0.00109484
0.00109311
0.00109205
0.0010887
0.00108652
0.00108444
0.00108345
0.00108108
0.00107936
0.00107772
0.00107602
0.00107521
0.00107384
0.00107269
0.00107187
0.00107038
0.00106934
0.00106904
0.00106846
0.00106814
0.00106753
0.00106717
0.00106694
0.00106676
0.00106682
0.00106694
0.00106713
0.0010673
0.0010675
0.00106774
0.00106798
0.00106824
0.00106845
0.00106863
0.00106894
0.00106926
0.00106938
0.00106949
0.00106965
0.00106989
0.00107009
0.00107026
0.00107046
0.00107065
0.00107082
0.00107098
0.00107114
0.0010713
0.00107144
0.00107153
0.0010715
0.00107144
0.0010714
0.00107146
0.00107157
0.00107169
0.0010718
0.0010719
0.00107199
0.00107206
0.00107211
0.00107214
0.00107217
0.00107218
0.00107216
0.00107213
0.00107211
0.00107212
0.00107214
0.00107214
0.00107216
0.00107218
0.00107223
0.0010723
0.00107237
0.00107243
0.00107249
0.00107252
0.00107253
0.00107252
0.00107251
0.0010725
0.0010725
0.0010725
0.00107249
0.00107248
0.0010725
0.00107255
0.00107261
0.00107268
0.00107274
0.00107279
0.00107283
0.00107287
0.00107291
0.00107292
0.00107289
0.00107287
0.00107284
0.00107281
0.00107277
0.00107273
0.0010727
0.00107268
0.00107267
0.00107266
0.00107265
0.00107264
0.00107264
0.00107265
0.00107266
0.00107268
0.00107271
0.00107272
0.00107275
0.00107279
0.00107285
0.00107291
0.00107298
0.00107307
0.00107316
0.00107323
0.00107332
0.00107342
0.00107353
0.00107362
0.0010737
0.00107379
0.00107391
0.00107402
0.00107412
0.00107423
0.00107435
0.00107448
0.00107462
0.00107476
0.0010749
0.00107503
0.00107517
0.00107532
0.00107547
0.00107564
0.00107578
0.00107594
0.0010761
0.00107625
0.00107639
0.00107653
0.00107667
0.00107683
0.00107698
0.00107711
0.00107724
0.00107739
0.00107756
0.00107772
0.00107788
0.00107805
0.0010782
0.00107836
0.00107851
0.00107866
0.00107879
0.00107893
0.00107906
0.0010792
0.00107932
0.00107943
0.00107956
0.0010797
0.00107982
0.00107991
0.00108001
0.00108012
0.00108027
0.00108041
0.00108055
0.00108069
0.00108083
0.00108095
0.00108106
0.00108118
0.0010813
0.00108142
0.00108156
0.00108171
0.00108188
0.00108206
0.0010822
0.00108233
0.00108245
0.00108259
0.00108274
0.00108291
0.00108308
0.00108324
0.00108337
0.00108348
0.00108356
0.00108366
0.00108381
0.00108398
0.00108417
0.00108434
0.00108446
0.00108456
0.00108467
0.00108479
0.0010849
0.00108506
0.00108526
0.00108544
0.00108569
0.00108583
0.00108579
0.00108588
0.00108584
0.001086
0.00108629
0.00108652
0.00108646
0.00108656
0.0010867
0.00108685
0.0010872
0.00108738
0.00108748
0.00108755
0.00108769
0.00108775
0.00108799
0.00108825
0.00108856
0.00108876
0.00108874
0.00108895
0.0010895
0.00108955
0.00108948
0.00108955
0.00108978
0.00108992
0.00109006
0.00109037
0.00109074
0.00109096
0.00109095
0.00109075
0.00109055
0.0010916
0.00109205
0.00109133
0.00109267
0.00109478
0.00109626
0.0010847
0.00108662
0.00107605
0.00107428
0.00108802
0.00108826
0.00109093
0.00109137
0.00109336
0.00109396
0.00109597
0.00109704
0.00109734
0.00109763
0.00109779
0.00109805
0.00109822
0.00109827
0.00109833
0.00109836
0.00109827
0.00109815
0.00109803
0.00109797
0.00109793
0.00109776
0.00109751
0.0010972
0.00109698
0.0010969
0.00109697
0.00109715
0.00109734
0.00109745
0.00109744
0.00109729
0.00109702
0.00109668
0.00109634
0.00109607
0.00109592
0.00109587
0.00109598
0.00109606
0.00109604
0.00109591
0.0010957
0.00109549
0.00109537
0.0010954
0.00109557
0.00109579
0.00109596
0.00109603
0.00109605
0.00109609
0.00109618
0.00109632
0.00109644
0.00109642
0.00109625
0.00109606
0.00109593
0.00109599
0.0010963
0.0010967
0.00109686
0.00109704
0.00109705
0.00109718
0.00109796
0.00109802
0.00109765
0.00109724
0.00109734
0.00109821
0.00109798
0.00109743
0.00109708
0.00109713
0.00109736
0.00109712
0.00109705
0.00109708
0.0010973
0.00109788
0.00109766
0.00109438
0.00108665
0.00109382
0.00173911
0.00272202
0.00326795
0.003532
0.00342769
0.00316912
0.00297963
0.00286377
0.00278357
0.00272516
0.00269147
0.00267149
0.0026497
0.00261396
0.00255865
0.00249953
0.00245148
0.00242825
0.00243681
0.00243483
0.00236602
0.00226117
0.00219229
0.0021886
0.00219115
0.00214869
0.00206906
0.00202028
0.00204717
0.00205974
0.0019754
0.00186724
0.0018083
0.00180218
0.00180714
0.00174634
0.00167718
0.00165182
0.00164758
0.00164497
0.00163206
0.00155582
0.00150197
0.00149175
0.001494
0.00146883
0.00143485
0.00141984
0.00141349
0.00139364
0.00136512
0.00134142
0.0013302
0.00132569
0.00131642
0.00129993
0.00129302
0.00129953
0.00130176
0.00127668
0.00125788
0.00125842
0.001265
0.00126276
0.00124102
0.00122904
0.00123327
0.0012357
0.0012313
0.00122994
0.00122824
0.0012296
0.00123571
0.00123619
0.00122513
0.00120895
0.00120272
0.00120145
0.00121704
0.0012659
0.00133931
0.00146598
0.00159565
0.00174862
0.00191989
0.00223513
0.00256215
0.00265538
0.00239641
0.00185445
0.00154448
0.00130328
0.0011888
0.00110259
0.0010727
0.00106142
0.00106593
0.00106375
0.00106719
0.00105586
0.00105728
0.00107
0.00108196
0.00110335
0.00109615
0.00111924
0.00116704
0.00121527
0.00125612
0.00121026
0.00112131
0.00111866
0.00108811
0.00107105
0.00105507
0.00105256
0.00104438
0.00104525
0.00104675
0.00106154
0.00105709
0.00106823
0.0010665
0.00108353
0.00110426
0.00117285
0.00114566
0.00106747
0.00106415
0.00105193
0.00104852
0.00105282
0.00104938
0.00104006
0.00104023
0.00103985
0.00103701
0.00103906
0.00104323
0.00104374
0.00104102
0.00104008
0.0010405
0.00104152
0.00104104
0.00104147
0.00104197
0.00104103
0.00103973
0.00104051
0.00104079
0.00104007
0.00104102
0.0010416
0.00104016
0.00103905
0.0010391
0.00103976
0.00103987
0.00103873
0.00103815
0.00103906
0.0010392
0.00103838
0.00103749
0.00103718
0.00103781
0.00103744
0.00103653
0.00103598
0.00103633
0.00103614
0.00103507
0.00103485
0.00103493
0.00103441
0.00103377
0.00103338
0.00103328
0.00103282
0.00103238
0.00103197
0.00103147
0.00103097
0.00103055
0.00103009
0.00102983
0.00102927
0.00102877
0.00102836
0.00102788
0.0010273
0.00102691
0.00102654
0.00102588
0.00102519
0.00102486
0.00102458
0.00102421
0.0010237
0.00102301
0.00102264
0.00102223
0.00102195
0.00102156
0.00102115
0.00102062
0.0010201
0.00101986
0.00101954
0.00101915
0.00101879
0.00101859
0.00101831
0.00101806
0.00101772
0.00101751
0.00101739
0.00101719
0.00101709
0.00101698
0.00101682
0.00101681
0.00101679
0.00101684
0.00101683
0.0010168
0.00101687
0.00101692
0.00101702
0.00101718
0.00101741
0.00101758
0.00101774
0.00101789
0.001018
0.00101813
0.00101826
0.00101844
0.00101864
0.00101869
0.00101861
0.00101869
0.00101874
0.00101877
0.00101881
0.00101892
0.001019
0.00101896
0.0010189
0.00101888
0.00101885
0.0010188
0.00101875
0.00101868
0.00101856
0.00101843
0.00101834
0.00101827
0.00101814
0.00101801
0.00101789
0.00101777
0.00101765
0.00101751
0.00101735
0.00101718
0.001017
0.00101683
0.00101664
0.00101648
0.00101633
0.00101619
0.00101603
0.00101582
0.00101561
0.00101542
0.00101523
0.00101505
0.00101486
0.00101468
0.0010145
0.0010143
0.00101409
0.00101388
0.00101367
0.00101346
0.00101324
0.00101303
0.00101283
0.00101263
0.00101244
0.00101226
0.00101208
0.0010119
0.00101172
0.00101155
0.00101137
0.00101119
0.00101102
0.00101084
0.00101065
0.00101047
0.00101028
0.0010101
0.00100991
0.00100972
0.00100953
0.00100935
0.00100917
0.001009
0.00100883
0.00100867
0.0010085
0.00100835
0.00100819
0.00100804
0.00100788
0.00100772
0.00100756
0.0010074
0.00100725
0.0010071
0.00100696
0.00100681
0.00100667
0.00100654
0.00100642
0.0010063
0.00100617
0.00100605
0.00100593
0.00100581
0.00100569
0.00100556
0.00100544
0.00100532
0.00100522
0.00100512
0.00100503
0.00100494
0.00100485
0.00100477
0.00100468
0.0010046
0.00100451
0.00100443
0.00100434
0.00100425
0.00100417
0.0010041
0.00100402
0.00100396
0.0010039
0.00100384
0.00100378
0.00100372
0.00100366
0.0010036
0.00100354
0.00100348
0.00100342
0.00100337
0.00100332
0.00100327
0.00100323
0.00100318
0.00100314
0.00100309
0.00100304
0.00100299
0.00100294
0.0010029
0.00100285
0.00100281
0.00100278
0.00100274
0.0010027
0.00100266
0.00100261
0.00100257
0.00100253
0.00100249
0.00100246
0.00100242
0.00100239
0.00100235
0.00100231
0.00100227
0.00100223
0.00100219
0.00100216
0.00100213
0.0010021
0.00100207
0.00100204
0.00100201
0.00100198
0.00100194
0.0010019
0.00100187
0.00100184
0.00100182
0.00100179
0.00100176
0.00100173
0.00100169
0.00100166
0.00100163
0.0010016
0.00100158
0.00100155
0.00100154
0.0010015
0.00100151
0.00100146
0.00100137
0.00100134
0.00100134
0.00100132
0.00100116
0.00100115
0.00100127
0.00100126
0.00100126
0.00100125
0.00100127
0.00100126
0.00100123
0.00100121
0.00100119
0.00100118
0.00100117
0.00100114
0.00100113
0.00100113
0.00100112
0.00100111
0.00100108
0.00100108
0.0010011
0.0010011
0.0010011
0.00100109
0.00100109
0.00100108
0.00100108
0.00100107
0.00100106
0.00100106
0.0010011
0.00100108
0.00100117
0.00100109
0.00100104
0.00100106
0.00100104
0.00100121
0.00100122
0.00100244
0.00100229
0.00100103
0.00100102
0.00100095
0.00100117
0.00100118
0.00100124
0.00100115
0.00100114
0.00100111
0.00100112
0.00100113
0.00100113
0.00100113
0.00100113
0.00100114
0.00100114
0.00100114
0.00100114
0.00100114
0.00100114
0.00100114
0.00100114
0.00100114
0.00100114
0.00100113
0.00100113
0.00100112
0.00100112
0.00100112
0.00100113
0.00100113
0.00100113
0.00100113
0.00100113
0.00100112
0.00100112
0.00100111
0.00100111
0.0010011
0.0010011
0.0010011
0.0010011
0.0010011
0.0010011
0.0010011
0.0010011
0.00100109
0.00100109
0.00100109
0.0010011
0.0010011
0.0010011
0.0010011
0.0010011
0.0010011
0.0010011
0.0010011
0.00100111
0.00100111
0.0010011
0.0010011
0.0010011
0.00100111
0.00100111
0.00100111
0.00100111
0.00100112
0.00100112
0.00100112
0.00100113
0.00100113
0.00100112
0.00100112
0.00100113
0.00100114
0.00100113
0.00100112
0.00100113
0.00100112
0.00100113
0.00100113
0.00100115
0.00100113
0.00100112
0.00100113
0.00100113
0.00100107
0.00100098
0.00100105
0.00165845
0.00241435
0.00268592
0.00268226
0.00242543
0.00212803
0.00194483
0.00185301
0.00180751
0.00178341
0.00176966
0.0017603
0.00175104
0.00173942
0.00172512
0.00171009
0.00169634
0.00168422
0.001674
0.0016653
0.00165426
0.00163883
0.00162128
0.00160674
0.00159666
0.00158836
0.00157779
0.00156214
0.00154705
0.00153481
0.00152513
0.00151848
0.00150753
0.0014902
0.00147257
0.00146062
0.0014528
0.00144429
0.00143348
0.00142173
0.00141436
0.00140998
0.00139985
0.00138727
0.00137351
0.00136172
0.00135315
0.00134768
0.00134378
0.00133918
0.00133072
0.00131769
0.00130642
0.00130176
0.00129968
0.00128681
0.0012749
0.00127992
0.00128365
0.00126792
0.0012517
0.00124948
0.00125575
0.0012589
0.00124297
0.00123258
0.0012363
0.0012377
0.00122807
0.00122047
0.00122059
0.00121906
0.00122022
0.00122166
0.00120877
0.00119802
0.00119454
0.0011753
0.00115448
0.00115519
0.00116579
0.00117572
0.00120339
0.00125712
0.00135921
0.00152682
0.00173457
0.0019313
0.00215254
0.00239536
0.0025625
0.00237076
0.00189811
0.00158963
0.00132409
0.00119885
0.00110879
0.00108243
0.00106038
0.00105969
0.00105585
0.00105827
0.00105332
0.00105542
0.00105805
0.00106205
0.00108847
0.00111315
0.00111217
0.00114748
0.00119048
0.001255
0.00120792
0.00111435
0.00110631
0.00108582
0.00107219
0.00105733
0.00105066
0.0010447
0.00104566
0.00104616
0.00105687
0.00105501
0.0010655
0.00106339
0.00108126
0.00110417
0.00117245
0.00114455
0.00106546
0.00106044
0.00104778
0.00104353
0.00104032
0.00105373
0.00105167
0.00104099
0.00104077
0.00103847
0.00103771
0.00104047
0.00104111
0.00103943
0.0010395
0.00103972
0.00103963
0.00103907
0.00103848
0.00103881
0.00103908
0.00103873
0.00103927
0.00103873
0.00103814
0.0010377
0.00103798
0.00103871
0.00103832
0.00103737
0.00103669
0.00103711
0.0010377
0.00103681
0.0010357
0.00103601
0.00103661
0.001036
0.00103482
0.0010344
0.00103505
0.00103492
0.00103379
0.00103331
0.00103384
0.00103328
0.00103249
0.00103226
0.0010323
0.00103186
0.00103116
0.00103096
0.0010306
0.00103002
0.00102957
0.00102942
0.00102922
0.00102855
0.00102792
0.0010276
0.00102727
0.00102673
0.00102625
0.00102596
0.0010257
0.00102505
0.00102437
0.00102406
0.00102384
0.00102348
0.00102292
0.00102236
0.00102199
0.00102175
0.00102139
0.00102092
0.00102048
0.00102014
0.00101982
0.00101949
0.00101915
0.00101882
0.00101856
0.00101827
0.00101806
0.00101777
0.00101754
0.00101745
0.00101727
0.00101718
0.00101704
0.00101687
0.0010169
0.0010169
0.0010169
0.00101689
0.0010169
0.00101698
0.001017
0.00101705
0.00101715
0.00101737
0.00101756
0.0010177
0.0010178
0.00101793
0.00101804
0.00101816
0.00101838
0.00101846
0.00101837
0.00101836
0.00101857
0.00101867
0.00101865
0.00101867
0.00101879
0.0010188
0.00101872
0.00101867
0.00101865
0.00101859
0.00101852
0.00101847
0.00101842
0.00101834
0.00101823
0.00101812
0.00101802
0.00101786
0.00101771
0.00101756
0.00101742
0.0010173
0.00101716
0.001017
0.00101684
0.00101667
0.00101648
0.0010163
0.00101612
0.00101596
0.0010158
0.00101563
0.00101545
0.00101526
0.00101507
0.00101487
0.00101468
0.00101449
0.0010143
0.00101411
0.0010139
0.00101368
0.00101346
0.00101324
0.00101302
0.0010128
0.00101258
0.00101237
0.00101217
0.00101197
0.00101178
0.0010116
0.00101142
0.00101124
0.00101107
0.00101089
0.00101072
0.00101054
0.00101036
0.00101018
0.00100999
0.0010098
0.00100961
0.00100941
0.00100922
0.00100903
0.00100884
0.00100866
0.00100848
0.0010083
0.00100813
0.00100796
0.0010078
0.00100764
0.00100748
0.00100732
0.00100715
0.00100699
0.00100682
0.00100666
0.00100652
0.00100637
0.00100623
0.00100609
0.00100595
0.00100582
0.0010057
0.00100557
0.00100544
0.00100531
0.00100518
0.00100506
0.00100493
0.0010048
0.00100468
0.00100457
0.00100447
0.00100438
0.00100428
0.00100419
0.0010041
0.00100401
0.00100392
0.00100383
0.00100374
0.00100365
0.00100357
0.00100348
0.00100341
0.00100333
0.00100326
0.0010032
0.00100313
0.00100307
0.001003
0.00100293
0.00100287
0.0010028
0.00100274
0.00100269
0.00100263
0.00100258
0.00100253
0.00100248
0.00100243
0.00100238
0.00100233
0.00100228
0.00100222
0.00100217
0.00100213
0.00100208
0.00100204
0.00100199
0.00100194
0.0010019
0.00100185
0.00100181
0.00100177
0.00100172
0.00100168
0.00100165
0.00100161
0.00100156
0.00100152
0.00100148
0.00100143
0.00100139
0.00100135
0.00100132
0.00100128
0.00100125
0.00100122
0.00100118
0.00100114
0.00100111
0.00100107
0.00100103
0.001001
0.00100097
0.00100093
0.0010009
0.00100086
0.00100082
0.00100078
0.00100075
0.00100073
0.0010007
0.00100067
0.00100066
0.00100061
0.00100049
0.00100046
0.00100046
0.00100043
0.00100023
0.00100022
0.00100037
0.00100034
0.00100033
0.00100032
0.00100035
0.00100034
0.0010003
0.00100028
0.00100025
0.00100024
0.00100022
0.00100017
0.00100015
0.00100014
0.00100012
0.00100007
0.00100006
0.00100009
0.00100008
0.00100008
0.00100006
0.00100006
0.00100008
0.00100006
0.00100004
0.00100002
0.000999988
0.000999979
0.00100004
0.00100001
0.00100011
0.00100001
0.00099991
0.000999883
0.00100034
0.00100017
0.00100049
0.00100184
0.0010018
0.00100009
0.00100023
0.00100013
0.00100012
0.00100013
0.00100002
0.000999913
0.000999888
0.000999902
0.000999907
0.000999916
0.000999913
0.000999897
0.000999881
0.00099987
0.000999864
0.000999861
0.00099986
0.000999859
0.000999857
0.000999855
0.000999853
0.000999853
0.000999853
0.000999853
0.000999852
0.000999851
0.000999851
0.000999851
0.000999851
0.000999853
0.000999855
0.000999856
0.000999855
0.000999852
0.000999851
0.000999852
0.000999855
0.000999858
0.00099986
0.00099986
0.000999858
0.000999855
0.000999852
0.00099985
0.000999849
0.00099985
0.000999851
0.000999853
0.000999856
0.000999859
0.000999861
0.000999861
0.00099986
0.000999858
0.000999857
0.000999857
0.000999856
0.000999853
0.00099985
0.000999849
0.000999853
0.000999858
0.000999858
0.000999859
0.00099986
0.000999852
0.000999844
0.000999843
0.000999843
0.000999846
0.000999846
0.000999845
0.000999842
0.000999842
0.000999843
0.000999855
0.000999863
0.000999842
0.000999857
0.000999844
0.000999846
0.000999845
0.000999883
0.000999846
0.000999843
0.000999843
0.000999846
0.000999841
0.000999863
0.00100005
0.000999958
0.00167115
0.00243433
0.0026829
0.00264234
0.00235931
0.002048
0.00185969
0.00176793
0.00172383
0.00170001
0.00168837
0.00168395
0.00167754
0.00166577
0.00165082
0.00163815
0.00163103
0.00162699
0.00161958
0.00160969
0.00160038
0.0015915
0.00158067
0.0015677
0.00155763
0.00155446
0.00155156
0.00154109
0.00152678
0.00151528
0.0015064
0.00149808
0.00149013
0.0014833
0.00147367
0.00146151
0.00144806
0.00143842
0.00143338