/*--------------------------------*- C++ -*----------------------------------*\
| =========                 |                                                 |
| \\      /  F ield         | OpenFOAM: The Open Source CFD Toolbox           |
|  \\    /   O peration     | Version:  v2006                                 |
|   \\  /    A nd           | Website:  www.openfoam.com                      |
|    \\/     M anipulation  |                                                 |
\*---------------------------------------------------------------------------*/
FoamFile
{
    version     2.0;
    format      ascii;
    class       surfaceScalarField;
    location    "2.4";
    object      phi;
}
// * * * * * * * * * * * * * * * * * * * * * * * * * * * * * * * * * * * * * //

dimensions      [0 3 -1 0 0 0 0];
oriented        oriented;


internalField   nonuniform List<scalar> 
65390
(
7.41907e-05
1.14535e-06
7.31196e-05
1.06497e-06
7.20182e-05
1.09675e-06
7.09267e-05
1.08498e-06
6.97743e-05
1.14878e-06
6.85715e-05
1.19812e-06
6.73283e-05
1.23953e-06
6.60638e-05
1.26269e-06
6.47989e-05
1.26118e-06
6.35412e-05
1.25424e-06
6.22536e-05
1.28655e-06
6.09256e-05
1.32762e-06
5.95659e-05
1.35842e-06
5.81844e-05
1.38078e-06
5.68561e-05
1.32926e-06
5.55768e-05
1.2813e-06
5.43063e-05
1.27246e-06
5.29949e-05
1.31338e-06
5.15243e-05
1.47298e-06
4.99244e-05
1.60283e-06
4.84747e-05
1.45307e-06
4.72379e-05
1.23997e-06
4.60436e-05
1.19737e-06
4.46467e-05
1.39981e-06
4.30837e-05
1.5661e-06
4.15922e-05
1.49446e-06
4.03081e-05
1.28691e-06
3.91126e-05
1.19764e-06
3.76264e-05
1.48809e-06
3.61004e-05
1.52807e-06
3.48549e-05
1.24804e-06
3.37038e-05
1.15389e-06
3.24301e-05
1.27632e-06
3.1003e-05
1.42943e-06
2.94931e-05
1.5122e-06
2.8349e-05
1.14665e-06
2.73414e-05
1.01041e-06
2.61558e-05
1.18838e-06
2.48436e-05
1.31456e-06
2.34642e-05
1.38133e-06
2.21557e-05
1.31015e-06
2.1199e-05
9.58206e-07
2.03449e-05
8.55698e-07
1.92317e-05
1.11509e-06
1.80335e-05
1.20052e-06
1.69939e-05
1.04229e-06
1.6107e-05
8.89971e-07
1.51691e-05
9.40913e-07
1.41376e-05
1.03437e-06
1.31978e-05
9.42144e-07
1.24124e-05
7.86961e-07
1.16643e-05
7.48877e-07
1.08152e-05
8.49202e-07
9.99209e-06
8.22628e-07
9.26412e-06
7.27085e-07
8.58128e-06
6.81836e-07
7.76733e-06
8.13103e-07
6.90589e-06
8.60999e-07
6.08672e-06
8.19259e-07
5.42831e-06
6.58984e-07
4.88106e-06
5.48068e-07
4.25254e-06
6.2929e-07
3.47847e-06
7.74512e-07
2.79343e-06
6.85042e-07
2.26879e-06
5.24218e-07
1.87908e-06
3.89028e-07
1.4732e-06
4.05183e-07
9.7972e-07
4.92953e-07
5.6164e-07
4.17876e-07
1.9159e-07
3.70252e-07
-2.09052e-07
4.01252e-07
-5.51353e-07
3.43254e-07
-7.49565e-07
1.99385e-07
-8.05148e-07
5.68496e-08
-9.49572e-07
1.45763e-07
-9.68473e-07
2.04031e-08
-9.48476e-07
-1.83914e-08
-1.06349e-06
1.16216e-07
-1.11246e-06
4.9495e-08
-1.102e-06
-9.79409e-09
-1.1943e-06
9.24945e-08
-1.25787e-06
6.34742e-08
-1.43521e-06
1.77817e-07
-1.54425e-06
1.08547e-07
-1.65623e-06
1.11691e-07
-1.7164e-06
6.00948e-08
-1.76673e-06
5.01003e-08
-1.85195e-06
8.53731e-08
-1.93276e-06
8.10261e-08
-2.01002e-06
7.72098e-08
-2.03186e-06
2.17568e-08
-2.02686e-06
-5.11747e-09
-2.01037e-06
-1.66794e-08
-2.00499e-06
-5.58797e-09
-1.96333e-06
-4.18404e-08
-1.87791e-06
-8.56601e-08
-1.70241e-06
-1.75691e-07
-1.48505e-06
-2.17484e-07
-1.2178e-06
-2.67387e-07
-1.01289e-06
-2.05144e-07
-9.30181e-07
-8.30093e-08
-9.07185e-07
-2.33049e-08
-9.23514e-07
1.60341e-08
-9.00631e-07
-2.3198e-08
-9.02888e-07
1.93273e-09
-9.0634e-07
3.15696e-09
-8.73662e-07
-3.2928e-08
-8.19772e-07
-5.41402e-08
-7.80281e-07
-3.97699e-08
-7.50949e-07
-2.96171e-08
-7.10619e-07
-4.05955e-08
-6.69524e-07
-4.13508e-08
-6.04485e-07
-6.52865e-08
-5.16575e-07
-8.81452e-08
-3.81948e-07
-1.34849e-07
-2.13234e-07
-1.68917e-07
7.53368e-09
-2.2094e-07
1.80593e-07
-1.73201e-07
2.73465e-07
-9.29872e-08
3.37101e-07
-6.37151e-08
3.53853e-07
-1.67785e-08
3.82885e-07
-2.90055e-08
3.74347e-07
8.58912e-09
3.72164e-07
2.22939e-09
3.93173e-07
-2.09501e-08
4.16245e-07
-2.29805e-08
4.44271e-07
-2.79204e-08
4.57959e-07
-1.3577e-08
4.60974e-07
-2.86048e-09
4.75247e-07
-1.40483e-08
5.00895e-07
-2.53711e-08
5.10117e-07
-8.91172e-09
5.13517e-07
-3.05033e-09
5.16535e-07
-2.64375e-09
5.27561e-07
-1.06657e-08
5.37954e-07
-1.00584e-08
5.30753e-07
7.52552e-09
5.22536e-07
8.53001e-09
5.16129e-07
6.69795e-09
5.14768e-07
1.63881e-09
4.95865e-07
1.91813e-08
4.75762e-07
2.03763e-08
4.56344e-07
1.96573e-08
4.33702e-07
2.28302e-08
4.03183e-07
3.06641e-08
3.72341e-07
3.09453e-08
3.44747e-07
2.76472e-08
3.16193e-07
2.8561e-08
2.74258e-07
4.19083e-08
2.31811e-07
4.23978e-08
1.86435e-07
4.53036e-08
1.37955e-07
4.83798e-08
9.92406e-08
3.85859e-08
6.02173e-08
3.88696e-08
6.79878e-09
5.32368e-08
-5.12888e-08
5.78734e-08
-1.0643e-07
5.48928e-08
-1.55621e-07
4.89112e-08
-2.07817e-07
5.18901e-08
-2.70642e-07
6.2502e-08
-3.35456e-07
6.44773e-08
-3.9522e-07
5.94203e-08
-4.5282e-07
5.72508e-08
-5.19555e-07
6.63803e-08
-5.91285e-07
7.13751e-08
-6.60087e-07
6.84472e-08
-7.25103e-07
6.4665e-08
-7.95271e-07
6.98232e-08
-8.7085e-07
7.52444e-08
-9.48053e-07
7.68811e-08
-1.02102e-06
7.26565e-08
-1.09068e-06
6.9375e-08
-1.16716e-06
7.62273e-08
-1.24734e-06
7.99413e-08
-1.32541e-06
7.78516e-08
-1.4015e-06
7.59063e-08
-1.47679e-06
7.51188e-08
-1.55508e-06
7.81445e-08
-1.63357e-06
7.83623e-08
-1.71212e-06
7.84305e-08
-1.79082e-06
7.85962e-08
-1.86726e-06
7.63534e-08
-1.94385e-06
7.64989e-08
-2.02209e-06
7.81673e-08
-2.09945e-06
7.73008e-08
-2.17447e-06
7.49694e-08
-2.24674e-06
7.2239e-08
-2.32185e-06
7.50757e-08
-2.39692e-06
7.50615e-08
-2.47042e-06
7.34924e-08
-2.54018e-06
6.97648e-08
-2.61113e-06
7.09595e-08
-2.68153e-06
7.04193e-08
-2.75009e-06
6.85688e-08
-2.81712e-06
6.70356e-08
-2.88227e-06
6.51584e-08
-2.947e-06
6.47157e-08
-3.01066e-06
6.36356e-08
-3.07174e-06
6.10436e-08
-3.12978e-06
5.79922e-08
-3.18796e-06
5.81195e-08
-3.24486e-06
5.6827e-08
-3.30045e-06
5.5509e-08
-3.35341e-06
5.28679e-08
-3.40462e-06
5.11202e-08
-3.45221e-06
4.75012e-08
-3.49835e-06
4.60453e-08
-3.54534e-06
4.69124e-08
-3.5891e-06
4.36808e-08
-3.63018e-06
4.10072e-08
-3.66807e-06
3.78288e-08
-3.70642e-06
3.82929e-08
-3.74176e-06
3.52838e-08
-3.77489e-06
3.30837e-08
-3.80562e-06
3.0683e-08
-3.83333e-06
2.76661e-08
-3.86076e-06
2.73996e-08
-3.88579e-06
2.49994e-08
-3.90869e-06
2.28735e-08
-3.93019e-06
2.14656e-08
-3.94826e-06
1.80334e-08
-3.96271e-06
1.44264e-08
-3.97717e-06
1.44228e-08
-3.9898e-06
1.2598e-08
-4.00075e-06
1.09123e-08
-4.00915e-06
8.36894e-09
-4.01561e-06
6.43039e-09
-4.01993e-06
4.28852e-09
-4.02121e-06
1.25857e-09
-4.02192e-06
6.83058e-10
-4.02083e-06
-1.12228e-09
-4.0181e-06
-2.76484e-09
-4.01328e-06
-4.86504e-09
-4.00651e-06
-6.8135e-09
-3.99738e-06
-9.17636e-09
-3.98763e-06
-9.79192e-09
-3.97673e-06
-1.09375e-08
-3.96431e-06
-1.24704e-08
-3.94957e-06
-1.47803e-08
-3.9338e-06
-1.58098e-08
-3.91681e-06
-1.70223e-08
-3.89845e-06
-1.84027e-08
-3.87894e-06
-1.95406e-08
-3.85814e-06
-2.08426e-08
-3.83617e-06
-2.20021e-08
-3.81306e-06
-2.31536e-08
-3.78947e-06
-2.36199e-08
-3.76492e-06
-2.45819e-08
-3.73892e-06
-2.60233e-08
-3.71221e-06
-2.67379e-08
-3.68481e-06
-2.74226e-08
-3.65669e-06
-2.81414e-08
-3.62791e-06
-2.8802e-08
-3.5986e-06
-2.93317e-08
-3.5689e-06
-2.9722e-08
-3.53861e-06
-3.02986e-08
-3.50741e-06
-3.12176e-08
-3.47545e-06
-3.19819e-08
-3.44373e-06
-3.17426e-08
-3.41148e-06
-3.22675e-08
-3.37883e-06
-3.26679e-08
-3.34565e-06
-3.31898e-08
-3.31248e-06
-3.31715e-08
-3.27917e-06
-3.33121e-08
-3.24565e-06
-3.35258e-08
-3.21196e-06
-3.36868e-08
-3.17804e-06
-3.3935e-08
-3.14395e-06
-3.40939e-08
-3.10972e-06
-3.42417e-08
-3.07531e-06
-3.44092e-08
-3.04101e-06
-3.43008e-08
-3.00679e-06
-3.4212e-08
-2.97272e-06
-3.40604e-08
-2.9387e-06
-3.40195e-08
-2.90472e-06
-3.39703e-08
-2.87074e-06
-3.39722e-08
-2.83683e-06
-3.39036e-08
-2.80303e-06
-3.37992e-08
-2.76939e-06
-3.36481e-08
-2.73593e-06
-3.34581e-08
-2.70267e-06
-3.32716e-08
-2.66954e-06
-3.31386e-08
-2.63657e-06
-3.2982e-08
-2.60371e-06
-3.2876e-08
-2.57098e-06
-3.27379e-08
-2.53843e-06
-3.25564e-08
-2.50609e-06
-3.23507e-08
-2.47395e-06
-3.21526e-08
-2.44198e-06
-3.19784e-08
-2.41019e-06
-3.18004e-08
-2.3786e-06
-3.16001e-08
-2.34721e-06
-3.13918e-08
-2.31607e-06
-3.11503e-08
-2.28521e-06
-3.08607e-08
-2.25464e-06
-3.05742e-08
-2.22436e-06
-3.02877e-08
-2.19436e-06
-2.99963e-08
-2.16468e-06
-2.96803e-08
-2.13532e-06
-2.93664e-08
-2.10626e-06
-2.90567e-08
-2.07752e-06
-2.87404e-08
-2.0491e-06
-2.84214e-08
-2.02098e-06
-2.81096e-08
-1.99318e-06
-2.78027e-08
-1.96567e-06
-2.7506e-08
-1.93844e-06
-2.72298e-08
-1.91148e-06
-2.69468e-08
-1.88483e-06
-2.6654e-08
-1.85845e-06
-2.63701e-08
-1.83235e-06
-2.60978e-08
-1.80653e-06
-2.58134e-08
-1.781e-06
-2.55231e-08
-1.75576e-06
-2.52315e-08
-1.73082e-06
-2.49361e-08
-1.70617e-06
-2.46394e-08
-1.68182e-06
-2.43452e-08
-1.65777e-06
-2.40509e-08
-1.63401e-06
-2.37546e-08
-1.61054e-06
-2.34629e-08
-1.58736e-06
-2.31745e-08
-1.56447e-06
-2.28881e-08
-1.54186e-06
-2.26021e-08
-1.51954e-06
-2.23163e-08
-1.4975e-06
-2.20367e-08
-1.47574e-06
-2.17575e-08
-1.45426e-06
-2.14761e-08
-1.43307e-06
-2.11893e-08
-1.41217e-06
-2.08998e-08
-1.39155e-06
-2.06188e-08
-1.3712e-06
-2.03538e-08
-1.3511e-06
-2.01042e-08
-1.33123e-06
-1.98672e-08
-1.3116e-06
-1.96398e-08
-1.29217e-06
-1.94273e-08
-1.27294e-06
-1.92373e-08
-1.25389e-06
-1.90531e-08
-1.23504e-06
-1.88617e-08
-1.21638e-06
-1.8661e-08
-1.19792e-06
-1.84554e-08
-1.17967e-06
-1.8254e-08
-1.16161e-06
-1.80561e-08
-1.14376e-06
-1.78547e-08
-1.12612e-06
-1.76535e-08
-1.10867e-06
-1.74584e-08
-1.0914e-06
-1.72745e-08
-1.07431e-06
-1.70987e-08
-1.05738e-06
-1.69314e-08
-1.0406e-06
-1.6774e-08
-1.02397e-06
-1.66255e-08
-1.00749e-06
-1.64805e-08
-9.91157e-07
-1.63313e-08
-9.7498e-07
-1.61762e-08
-9.58965e-07
-1.60156e-08
-9.43116e-07
-1.58494e-08
-9.27439e-07
-1.56784e-08
-9.11932e-07
-1.55099e-08
-8.96583e-07
-1.53509e-08
-8.81381e-07
-1.52018e-08
-8.66321e-07
-1.50589e-08
-8.51395e-07
-1.49217e-08
-8.36598e-07
-1.47905e-08
-8.21931e-07
-1.46593e-08
-8.07403e-07
-1.45194e-08
-7.93029e-07
-1.43664e-08
-7.78818e-07
-1.42048e-08
-7.64769e-07
-1.40424e-08
-7.50879e-07
-1.3885e-08
-7.37138e-07
-1.37349e-08
-7.2354e-07
-1.3593e-08
-7.10073e-07
-1.34634e-08
-6.96728e-07
-1.33415e-08
-6.83504e-07
-1.32215e-08
-6.70406e-07
-1.30958e-08
-6.57443e-07
-1.29613e-08
-6.44621e-07
-1.28198e-08
-6.31942e-07
-1.26755e-08
-6.1941e-07
-1.25295e-08
-6.07025e-07
-1.23813e-08
-5.94787e-07
-1.22341e-08
-5.82688e-07
-1.20956e-08
-5.70717e-07
-1.19676e-08
-5.58872e-07
-1.18422e-08
-5.47162e-07
-1.17081e-08
-5.356e-07
-1.15598e-08
-5.24199e-07
-1.13984e-08
-5.12968e-07
-1.12291e-08
-5.01905e-07
-1.10614e-08
-4.91002e-07
-1.09029e-08
-4.80246e-07
-1.07558e-08
-4.69629e-07
-1.06172e-08
-4.59146e-07
-1.04827e-08
-4.48801e-07
-1.03445e-08
-4.38604e-07
-1.0196e-08
-4.28569e-07
-1.00356e-08
-4.18703e-07
-9.86714e-09
-4.09007e-07
-9.69741e-09
-3.99476e-07
-9.53329e-09
-3.90096e-07
-9.38343e-09
-3.80848e-07
-9.25137e-09
-3.7172e-07
-9.13065e-09
-3.62717e-07
-9.00645e-09
-3.53851e-07
-8.86881e-09
-3.45134e-07
-8.72014e-09
-3.36566e-07
-8.56979e-09
-3.28148e-07
-8.41998e-09
-3.19875e-07
-8.27284e-09
-3.11737e-07
-8.1377e-09
-3.03725e-07
-8.01107e-09
-2.95845e-07
-7.8791e-09
-2.8811e-07
-7.73336e-09
-2.80527e-07
-7.58211e-09
-2.7309e-07
-7.43493e-09
-2.65785e-07
-7.30235e-09
-2.58603e-07
-7.1789e-09
-2.51537e-07
-7.06245e-09
-2.44583e-07
-6.95e-09
-2.37758e-07
-6.8206e-09
-2.31043e-07
-6.71152e-09
-2.24454e-07
-6.58551e-09
-2.18024e-07
-6.42508e-09
-2.11688e-07
-6.33168e-09
-2.0545e-07
-6.23379e-09
-1.99425e-07
-6.02144e-09
-1.93302e-07
-6.12081e-09
-1.87317e-07
-5.98202e-09
-1.81812e-07
-5.50292e-09
-1.76183e-07
-5.62746e-09
-1.70786e-07
-5.39442e-09
-1.6604e-07
-4.74184e-09
-1.62104e-07
-3.93113e-09
-1.58257e-07
-3.84096e-09
-1.53825e-07
-4.42423e-09
-1.49326e-07
-4.49002e-09
-1.44738e-07
-4.57739e-09
-1.40166e-07
-4.56006e-09
-1.35675e-07
-4.47763e-09
-1.31262e-07
-4.39705e-09
-1.26909e-07
-4.33483e-09
-1.22624e-07
-4.26594e-09
-1.1835e-07
-4.25335e-09
-1.14208e-07
-4.11933e-09
-1.1017e-07
-4.01418e-09
-1.06203e-07
-3.94078e-09
-1.02402e-07
-3.77343e-09
-9.85715e-08
-3.80192e-09
-9.48825e-08
-3.65829e-09
-9.13786e-08
-3.47072e-09
-8.80669e-08
-3.27607e-09
-8.47954e-08
-3.23243e-09
-8.14039e-08
-3.34792e-09
-7.8149e-08
-3.20678e-09
-7.49222e-08
-3.17336e-09
-7.18491e-08
-3.01329e-09
-6.88917e-08
-2.89021e-09
-6.61243e-08
-2.69199e-09
-6.34158e-08
-2.62321e-09
-6.06019e-08
-2.7184e-09
-5.79998e-08
-2.49254e-09
-5.55285e-08
-2.34824e-09
-5.29757e-08
-2.41447e-09
-5.05098e-08
-2.30986e-09
-4.86015e-08
-1.74124e-09
-4.54242e-08
-3.00124e-09
-4.2576e-08
-2.68938e-09
-4.11436e-08
-1.33517e-09
-3.83425e-08
-2.92368e-09
-3.85976e-08
-2.98921e-10
-4.08307e-08
6.09947e-10
-4.97612e-08
6.35447e-09
-5.57311e-08
1.30202e-09
-6.40472e-08
4.4323e-11
-6.82852e-08
-3.32173e-09
-7.02877e-08
-4.8368e-09
-7.10509e-08
-5.40892e-09
-7.11699e-08
-5.44899e-09
-7.1006e-08
-5.1909e-09
-7.07143e-08
-4.83591e-09
-7.03308e-08
-4.49629e-09
-6.98823e-08
-4.17564e-09
-6.93951e-08
-3.86948e-09
-6.88327e-08
-3.63546e-09
-6.81347e-08
-3.49312e-09
-6.73043e-08
-3.37463e-09
-6.64095e-08
-3.21143e-09
-6.55046e-08
-3.0138e-09
-6.45787e-08
-2.84427e-09
-6.35817e-08
-2.73958e-09
-6.2495e-08
-2.66613e-09
-6.13554e-08
-2.56735e-09
-6.01885e-08
-2.45316e-09
-5.90193e-08
-2.32375e-09
-5.78743e-08
-2.1773e-09
-5.67715e-08
-2.02196e-09
-5.57136e-08
-1.87345e-09
-5.46871e-08
-1.74794e-09
-5.36715e-08
-1.6525e-09
-5.26463e-08
-1.58727e-09
-5.15899e-08
-1.55292e-09
-5.04745e-08
-1.55543e-09
-4.92713e-08
-1.59544e-09
-4.79859e-08
-1.63739e-09
-4.65769e-08
-1.72771e-09
-4.50307e-08
-1.83763e-09
-4.33563e-08
-1.94337e-09
-4.15829e-08
-2.02377e-09
-3.97484e-08
-2.0691e-09
-3.78896e-08
-2.07956e-09
-3.60369e-08
-2.06095e-09
-3.42124e-08
-2.02092e-09
-3.24354e-08
-1.9616e-09
-3.07296e-08
-1.87867e-09
-2.91233e-08
-1.76694e-09
-2.76394e-08
-1.63212e-09
-2.628e-08
-1.49476e-09
-2.50216e-08
-1.38069e-09
-2.382e-08
-1.31062e-09
-2.26235e-08
-1.2923e-09
-2.13853e-08
-1.32083e-09
-2.00684e-08
-1.38678e-09
-1.8646e-08
-1.47984e-09
-1.71141e-08
-1.5774e-09
-1.55211e-08
-1.62735e-09
-1.39807e-08
-1.56444e-09
-1.26176e-08
-1.3776e-09
-1.14629e-08
-1.16083e-09
-1.04053e-08
-1.05627e-09
-9.2368e-09
-1.16097e-09
-7.84817e-09
-1.37602e-09
-6.40705e-09
-1.42468e-09
-5.22662e-09
-1.16143e-09
-4.52734e-09
-6.78958e-10
-4.11806e-09
-3.88821e-10
-3.57228e-09
-5.26346e-10
-2.64085e-09
-9.14092e-10
-1.65281e-09
-9.73787e-10
-1.02648e-09
-6.16013e-10
-7.38447e-10
-2.82345e-10
-2.21418e-10
-5.16497e-10
8.80514e-10
-1.10694e-09
2.105e-09
-1.23533e-09
3.033e-09
-9.44839e-10
3.9372e-09
-9.27e-10
5.32785e-09
-1.41902e-09
6.93575e-09
-1.6411e-09
7.99658e-09
-1.09801e-09
8.63555e-09
-6.7937e-10
9.44915e-09
-8.56245e-10
9.9303e-09
-5.236e-10
1.05555e-08
-6.62458e-10
1.0234e-09
7.41425e-05
2.38266e-06
7.29909e-05
2.21107e-06
7.18858e-05
2.20025e-06
7.07459e-05
2.21917e-06
6.95468e-05
2.34414e-06
6.83255e-05
2.41531e-06
6.71019e-05
2.45657e-06
6.58489e-05
2.50911e-06
6.45725e-05
2.53079e-06
6.32887e-05
2.53036e-06
6.19861e-05
2.58122e-06
6.06642e-05
2.64126e-06
5.93313e-05
2.68264e-06
5.80013e-05
2.7025e-06
5.66565e-05
2.66616e-06
5.52819e-05
2.648e-06
5.39097e-05
2.63701e-06
5.2552e-05
2.66404e-06
5.116e-05
2.85907e-06
4.97804e-05
2.97748e-06
4.84236e-05
2.80578e-06
4.70826e-05
2.5778e-06
4.57097e-05
2.56807e-06
4.42888e-05
2.81996e-06
4.29279e-05
2.92757e-06
4.15712e-05
2.85281e-06
4.02828e-05
2.57764e-06
3.89357e-05
2.54787e-06
3.75196e-05
2.90819e-06
3.60055e-05
3.04699e-06
3.45726e-05
2.68627e-06
3.33352e-05
2.39667e-06
3.2177e-05
2.43986e-06
3.0995e-05
2.61695e-06
2.97082e-05
2.8047e-06
2.83216e-05
2.53912e-06
2.70887e-05
2.24903e-06
2.59546e-05
2.32775e-06
2.48374e-05
2.43672e-06
2.36499e-05
2.57376e-06
2.23762e-05
2.58871e-06
2.12866e-05
2.05255e-06
2.02684e-05
1.87813e-06
1.92928e-05
2.09437e-06
1.82381e-05
2.25799e-06
1.71179e-05
2.16453e-06
1.60446e-05
1.96467e-06
1.5046e-05
1.94041e-06
1.40977e-05
1.98321e-06
1.31768e-05
1.8636e-06
1.22964e-05
1.66828e-06
1.14207e-05
1.62585e-06
1.05636e-05
1.70795e-06
9.74462e-06
1.64334e-06
9.01962e-06
1.45368e-06
8.32303e-06
1.37962e-06
7.58817e-06
1.54863e-06
6.77124e-06
1.67809e-06
5.98405e-06
1.6062e-06
5.36886e-06
1.27361e-06
4.77003e-06
1.14609e-06
4.09319e-06
1.3052e-06
3.35816e-06
1.5086e-06
2.69165e-06
1.35075e-06
2.20223e-06
1.01316e-06
1.72195e-06
8.69244e-07
1.26327e-06
8.64212e-07
8.55692e-07
9.01175e-07
4.31942e-07
8.42402e-07
-2.45567e-08
8.27492e-07
-4.21585e-07
7.98846e-07
-7.01452e-07
6.23407e-07
-9.6855e-07
4.66528e-07
-1.23109e-06
3.1941e-07
-1.45756e-06
3.72519e-07
-1.683e-06
2.46386e-07
-1.85516e-06
1.53977e-07
-1.79566e-06
5.71865e-08
-1.6383e-06
-1.06325e-07
-1.65925e-06
1.18729e-08
-1.80773e-06
2.41492e-07
-1.8194e-06
7.55024e-08
-1.69985e-06
5.87959e-08
-1.63217e-06
4.14123e-08
-1.51804e-06
-1.84012e-09
-1.60612e-06
1.48973e-07
-1.74525e-06
1.89775e-07
-1.9065e-06
2.46891e-07
-2.02531e-06
1.99874e-07
-2.06032e-06
1.11909e-07
-2.06001e-06
2.10591e-08
-2.07132e-06
5.96937e-09
-2.07594e-06
-1.24642e-08
-2.07836e-06
-3.83733e-09
-2.07285e-06
-4.80672e-08
-2.05135e-06
-1.0789e-07
-2.0315e-06
-1.96213e-07
-2.00868e-06
-2.41058e-07
-1.99368e-06
-2.83246e-07
-1.87318e-06
-3.26558e-07
-1.65971e-06
-2.97377e-07
-1.38366e-06
-3.00226e-07
-1.1548e-06
-2.13607e-07
-1.02927e-06
-1.49407e-07
-9.21634e-07
-1.06297e-07
-8.68822e-07
-5.02047e-08
-8.31213e-07
-7.10346e-08
-8.04482e-07
-8.12884e-08
-8.05739e-07
-3.88596e-08
-7.99421e-07
-3.62427e-08
-7.48842e-07
-9.14488e-08
-6.91812e-07
-9.86007e-08
-6.32567e-07
-1.24697e-07
-5.77186e-07
-1.43653e-07
-5.31153e-07
-1.80976e-07
-4.77641e-07
-2.22479e-07
-4.40776e-07
-2.57802e-07
-3.55155e-07
-2.58766e-07
-2.09392e-07
-2.38634e-07
7.53541e-09
-2.80475e-07
2.01151e-07
-2.10189e-07
2.97698e-07
-1.25315e-07
3.71426e-07
-6.48727e-08
4.14426e-07
-4.04728e-08
4.46766e-07
-5.29437e-08
4.36437e-07
-1.22408e-08
4.32949e-07
-2.39612e-08
4.54604e-07
-3.46997e-08
4.73561e-07
-2.1204e-08
4.92195e-07
-3.19883e-08
5.08482e-07
-4.0913e-08
5.16643e-07
-1.63073e-08
5.2217e-07
-7.80657e-09
5.29476e-07
-9.19112e-09
5.37006e-07
-1.74789e-08
5.4026e-07
-1.26484e-08
5.34671e-07
1.37349e-08
5.32094e-07
1.16838e-08
5.27387e-07
1.19157e-08
5.17791e-07
1.16638e-08
4.9899e-07
3.83329e-08
4.84148e-07
3.54857e-08
4.67741e-07
3.62329e-08
4.4159e-07
4.90393e-08
4.12252e-07
5.99529e-08
3.86401e-07
5.66462e-08
3.58909e-07
5.4894e-08
3.23024e-07
6.41129e-08
2.80692e-07
8.3835e-08
2.42857e-07
7.97629e-08
2.02427e-07
8.52012e-08
1.56564e-07
9.36464e-08
1.12942e-07
8.15508e-08
6.75033e-08
8.35963e-08
1.55643e-08
1.04408e-07
-3.91959e-08
1.11814e-07
-9.16493e-08
1.06484e-07
-1.43773e-07
1.00143e-07
-2.00467e-07
1.07677e-07
-2.61971e-07
1.23094e-07
-3.25686e-07
1.27284e-07
-3.87033e-07
1.1987e-07
-4.47385e-07
1.16721e-07
-5.12952e-07
1.31086e-07
-5.83942e-07
1.41531e-07
-6.54361e-07
1.38065e-07
-7.22329e-07
1.3187e-07
-7.91326e-07
1.38096e-07
-8.65602e-07
1.48843e-07
-9.42718e-07
1.53369e-07
-1.01593e-06
1.45294e-07
-1.0877e-06
1.40634e-07
-1.16484e-06
1.52915e-07
-1.24474e-06
1.59441e-07
-1.32053e-06
1.53304e-07
-1.39682e-06
1.519e-07
-1.47564e-06
1.53681e-07
-1.55363e-06
1.55918e-07
-1.63073e-06
1.55274e-07
-1.70794e-06
1.55481e-07
-1.78618e-06
1.56696e-07
-1.86425e-06
1.54302e-07
-1.94268e-06
1.54821e-07
-2.02099e-06
1.56391e-07
-2.09795e-06
1.54191e-07
-2.17307e-06
1.50043e-07
-2.24697e-06
1.46102e-07
-2.3213e-06
1.49387e-07
-2.39537e-06
1.49138e-07
-2.46877e-06
1.46901e-07
-2.54129e-06
1.42306e-07
-2.61302e-06
1.42717e-07
-2.68339e-06
1.40808e-07
-2.75157e-06
1.36757e-07
-2.81778e-06
1.33242e-07
-2.88337e-06
1.30716e-07
-2.94922e-06
1.30527e-07
-3.01324e-06
1.27591e-07
-3.07421e-06
1.21921e-07
-3.13333e-06
1.17005e-07
-3.19106e-06
1.15714e-07
-3.24794e-06
1.13571e-07
-3.30412e-06
1.11532e-07
-3.3565e-06
1.05088e-07
-3.40683e-06
1.01293e-07
-3.45542e-06
9.59383e-08
-3.50356e-06
9.40297e-08
-3.55045e-06
9.36586e-08
-3.59325e-06
8.63566e-08
-3.63416e-06
8.17929e-08
-3.6736e-06
7.71724e-08
-3.71215e-06
7.6753e-08
-3.74694e-06
6.99941e-08
-3.77972e-06
6.57953e-08
-3.8105e-06
6.14125e-08
-3.83898e-06
5.60912e-08
-3.86584e-06
5.42133e-08
-3.89042e-06
4.95426e-08
-3.91318e-06
4.55944e-08
-3.93456e-06
4.28253e-08
-3.95241e-06
3.58643e-08
-3.96847e-06
3.04723e-08
-3.98249e-06
2.84374e-08
-3.99457e-06
2.46697e-08
-4.00557e-06
2.19067e-08
-4.01366e-06
1.64532e-08
-4.01975e-06
1.25034e-08
-4.02389e-06
8.39726e-09
-4.02608e-06
3.41978e-09
-4.02646e-06
1.03123e-09
-4.02513e-06
-2.48845e-09
-4.02236e-06
-5.55733e-09
-4.01719e-06
-1.00619e-08
-4.01022e-06
-1.38155e-08
-4.00148e-06
-1.79334e-08
-3.99126e-06
-2.00278e-08
-3.97948e-06
-2.27407e-08
-3.96669e-06
-2.52837e-08
-3.95306e-06
-2.84321e-08
-3.93772e-06
-3.11661e-08
-3.92037e-06
-3.44061e-08
-3.90163e-06
-3.71647e-08
-3.88208e-06
-3.91216e-08
-3.86119e-06
-4.17628e-08
-3.83886e-06
-4.43584e-08
-3.81551e-06
-4.6537e-08
-3.79192e-06
-4.72274e-08
-3.76739e-06
-4.91391e-08
-3.74159e-06
-5.18483e-08
-3.71461e-06
-5.37297e-08
-3.68699e-06
-5.50655e-08
-3.65864e-06
-5.65151e-08
-3.62959e-06
-5.7865e-08
-3.60005e-06
-5.88937e-08
-3.56992e-06
-5.98627e-08
-3.5391e-06
-6.1137e-08
-3.50777e-06
-6.25529e-08
-3.47628e-06
-6.34803e-08
-3.44477e-06
-6.3265e-08
-3.4124e-06
-6.46425e-08
-3.37958e-06
-6.55045e-08
-3.34647e-06
-6.63155e-08
-3.31319e-06
-6.64652e-08
-3.27976e-06
-6.67544e-08
-3.24608e-06
-6.72157e-08
-3.21226e-06
-6.75195e-08
-3.17832e-06
-6.78734e-08
-3.14424e-06
-6.8173e-08
-3.11004e-06
-6.84434e-08
-3.07577e-06
-6.86806e-08
-3.04148e-06
-6.85977e-08
-3.0072e-06
-6.84979e-08
-2.97311e-06
-6.81649e-08
-2.93908e-06
-6.80537e-08
-2.90516e-06
-6.78996e-08
-2.87122e-06
-6.79252e-08
-2.83732e-06
-6.78145e-08
-2.80349e-06
-6.76441e-08
-2.76974e-06
-6.74137e-08
-2.7361e-06
-6.71073e-08
-2.70264e-06
-6.6754e-08
-2.66941e-06
-6.63739e-08
-2.63637e-06
-6.60442e-08
-2.60343e-06
-6.58221e-08
-2.57068e-06
-6.55143e-08
-2.5381e-06
-6.51489e-08
-2.50572e-06
-6.47523e-08
-2.47354e-06
-6.43565e-08
-2.44156e-06
-6.39754e-08
-2.4098e-06
-6.35795e-08
-2.37827e-06
-6.31542e-08
-2.34696e-06
-6.27204e-08
-2.31589e-06
-6.22384e-08
-2.28508e-06
-6.16949e-08
-2.25453e-06
-6.11458e-08
-2.22425e-06
-6.05808e-08
-2.19427e-06
-5.99955e-08
-2.16458e-06
-5.93831e-08
-2.13519e-06
-5.87725e-08
-2.1061e-06
-5.81603e-08
-2.07731e-06
-5.7541e-08
-2.04882e-06
-5.69223e-08
-2.02064e-06
-5.63072e-08
-1.99275e-06
-5.5699e-08
-1.96517e-06
-5.51056e-08
-1.93787e-06
-5.45327e-08
-1.91088e-06
-5.39528e-08
-1.88418e-06
-5.33647e-08
-1.85777e-06
-5.27843e-08
-1.83167e-06
-5.2215e-08
-1.80586e-06
-5.16345e-08
-1.78034e-06
-5.10487e-08
-1.75512e-06
-5.0462e-08
-1.7302e-06
-4.98705e-08
-1.70558e-06
-4.92765e-08
-1.68125e-06
-4.86859e-08
-1.65722e-06
-4.80965e-08
-1.63348e-06
-4.75066e-08
-1.61004e-06
-4.69237e-08
-1.58688e-06
-4.63466e-08
-1.56402e-06
-4.57729e-08
-1.54144e-06
-4.51977e-08
-1.51916e-06
-4.46203e-08
-1.49716e-06
-4.40505e-08
-1.47546e-06
-4.34865e-08
-1.45403e-06
-4.29273e-08
-1.43288e-06
-4.23686e-08
-1.412e-06
-4.18102e-08
-1.39138e-06
-4.1265e-08
-1.37102e-06
-4.07463e-08
-1.3509e-06
-4.02556e-08
-1.33101e-06
-3.97872e-08
-1.31135e-06
-3.93321e-08
-1.29192e-06
-3.88956e-08
-1.27269e-06
-3.84907e-08
-1.25368e-06
-3.81023e-08
-1.23487e-06
-3.77109e-08
-1.21626e-06
-3.73064e-08
-1.19786e-06
-3.68931e-08
-1.17967e-06
-3.64885e-08
-1.16166e-06
-3.60953e-08
-1.14384e-06
-3.57048e-08
-1.12621e-06
-3.53176e-08
-1.10876e-06
-3.49404e-08
-1.09148e-06
-3.45815e-08
-1.07437e-06
-3.42361e-08
-1.05744e-06
-3.39011e-08
-1.04067e-06
-3.35781e-08
-1.02406e-06
-3.32673e-08
-1.00761e-06
-3.29617e-08
-9.91315e-07
-3.26517e-08
-9.75178e-07
-3.23379e-08
-9.59193e-07
-3.20224e-08
-9.43359e-07
-3.17036e-08
-9.27675e-07
-3.13802e-08
-9.1214e-07
-3.10613e-08
-8.96751e-07
-3.0756e-08
-8.81506e-07
-3.04624e-08
-8.66408e-07
-3.0173e-08
-8.5146e-07
-2.98864e-08
-8.36662e-07
-2.96066e-08
-8.2201e-07
-2.93298e-08
-8.07504e-07
-2.90455e-08
-7.93143e-07
-2.87464e-08
-7.78931e-07
-2.84369e-08
-7.64865e-07
-2.81274e-08
-7.50942e-07
-2.78256e-08
-7.3716e-07
-2.75345e-08
-7.23515e-07
-2.7254e-08
-7.10006e-07
-2.69877e-08
-6.9663e-07
-2.67306e-08
-6.83389e-07
-2.64755e-08
-6.70284e-07
-2.62123e-08
-6.5732e-07
-2.59357e-08
-6.445e-07
-2.56493e-08
-6.31822e-07
-2.53618e-08
-6.19282e-07
-2.50767e-08
-6.06881e-07
-2.47902e-08
-5.9462e-07
-2.45014e-08
-5.82504e-07
-2.42184e-08
-5.70531e-07
-2.39452e-08
-5.58706e-07
-2.36719e-08
-5.47034e-07
-2.33848e-08
-5.35517e-07
-2.30804e-08
-5.24156e-07
-2.27648e-08
-5.12944e-07
-2.24463e-08
-5.01876e-07
-2.21349e-08
-4.90948e-07
-2.18376e-08
-4.8016e-07
-2.15519e-08
-4.69515e-07
-2.12703e-08
-4.59021e-07
-2.09852e-08
-4.48686e-07
-2.06892e-08
-4.38512e-07
-2.03795e-08
-4.28498e-07
-2.00599e-08
-4.18637e-07
-1.97378e-08
-4.08925e-07
-1.942e-08
-3.99357e-07
-1.91126e-08
-3.89929e-07
-1.88212e-08
-3.80645e-07
-1.85462e-08
-3.71506e-07
-1.82799e-08
-3.62515e-07
-1.80085e-08
-3.5367e-07
-1.77235e-08
-3.44968e-07
-1.74325e-08
-3.36399e-07
-1.71482e-08
-3.27961e-07
-1.68675e-08
-3.1966e-07
-1.65821e-08
-3.11505e-07
-1.63e-08
-3.035e-07
-1.60231e-08
-2.95645e-07
-1.57405e-08
-2.87936e-07
-1.54477e-08
-2.80364e-07
-1.51588e-08
-2.72922e-07
-1.48812e-08
-2.65597e-07
-1.46319e-08
-2.58399e-07
-1.43803e-08
-2.51311e-07
-1.41535e-08
-2.44357e-07
-1.39063e-08
-2.37578e-07
-1.36026e-08
-2.30921e-07
-1.33708e-08
-2.24339e-07
-1.31707e-08
-2.17928e-07
-1.2838e-08
-2.11386e-07
-1.28766e-08
-2.05012e-07
-1.26102e-08
-1.99187e-07
-1.18483e-08
-1.93474e-07
-1.18376e-08
-1.87947e-07
-1.15128e-08
-1.82875e-07
-1.05788e-08
-1.78787e-07
-9.72062e-09
-1.74728e-07
-9.4599e-09
-1.69884e-07
-9.59212e-09
-1.64693e-07
-9.1305e-09
-1.59439e-07
-9.10581e-09
-1.54521e-07
-9.35454e-09
-1.49654e-07
-9.3721e-09
-1.4493e-07
-9.31967e-09
-1.40282e-07
-9.22986e-09
-1.35732e-07
-9.05328e-09
-1.31271e-07
-8.88667e-09
-1.26899e-07
-8.73957e-09
-1.22548e-07
-8.65239e-09
-1.18264e-07
-8.57597e-09
-1.14192e-07
-8.23492e-09
-1.10229e-07
-8.02377e-09
-1.06337e-07
-7.88187e-09
-1.02594e-07
-7.56965e-09
-9.90873e-08
-7.36619e-09
-9.56546e-08
-7.15319e-09
-9.20902e-08
-7.10252e-09
-8.84829e-08
-6.95704e-09
-8.49259e-08
-6.87036e-09
-8.15367e-08
-6.82572e-09
-7.81998e-08
-6.641e-09
-7.49236e-08
-6.5577e-09
-7.16396e-08
-6.41742e-09
-6.86471e-08
-6.01673e-09
-6.5855e-08
-5.6334e-09
-6.32541e-08
-5.39063e-09
-6.0752e-08
-5.40869e-09
-5.80062e-08
-5.44709e-09
-5.57131e-08
-4.87278e-09
-5.20173e-08
-6.36756e-09
-4.89261e-08
-5.67063e-09
-4.75165e-08
-3.41507e-09
-4.61351e-08
-4.56928e-09
-4.56908e-08
-3.13297e-09
-4.74554e-08
9.49469e-10
-5.91224e-08
9.89928e-09
-7.25881e-08
1.62991e-08
-7.92354e-08
1.35131e-08
-8.21315e-08
1.75687e-08
-7.878e-08
1.04429e-08
-7.5205e-08
8.41993e-09
-7.34946e-08
6.171e-09
-7.26824e-08
4.71794e-09
-7.23137e-08
3.73133e-09
-7.20174e-08
2.93008e-09
-7.16922e-08
2.37639e-09
-7.12318e-08
1.8744e-09
-7.06063e-08
1.39006e-09
-6.98868e-08
1.01953e-09
-6.9115e-08
7.33401e-10
-6.82984e-08
4.34655e-10
-6.7456e-08
1.09813e-10
-6.66103e-08
-1.75495e-10
-6.57515e-08
-3.90024e-10
-6.48424e-08
-5.76167e-10
-6.38517e-08
-7.94394e-10
-6.2769e-08
-1.06414e-09
-6.15688e-08
-1.36959e-09
-6.0399e-08
-1.48289e-09
-5.92276e-08
-1.59541e-09
-5.80594e-08
-1.67171e-09
-5.69171e-08
-1.69236e-09
-5.5806e-08
-1.68334e-09
-5.47134e-08
-1.67834e-09
-5.36177e-08
-1.70261e-09
-5.25003e-08
-1.76019e-09
-5.13467e-08
-1.84742e-09
-5.01471e-08
-1.96083e-09
-4.89002e-08
-2.0987e-09
-4.76052e-08
-2.26216e-09
-4.62312e-08
-2.44678e-09
-4.47976e-08
-2.65047e-09
-4.33137e-08
-2.85573e-09
-4.1785e-08
-3.04425e-09
-4.02135e-08
-3.19978e-09
-3.86023e-08
-3.31294e-09
-3.69562e-08
-3.38314e-09
-3.52862e-08
-3.41144e-09
-3.36107e-08
-3.39848e-09
-3.19581e-08
-3.3372e-09
-3.03619e-08
-3.2186e-09
-2.8849e-08
-3.04426e-09
-2.74267e-08
-2.83952e-09
-2.6078e-08
-2.64937e-09
-2.47712e-08
-2.51411e-09
-2.34748e-08
-2.45432e-09
-2.21743e-08
-2.46034e-09
-2.08659e-08
-2.51668e-09
-1.95386e-08
-2.62064e-09
-1.81687e-08
-2.77462e-09
-1.67393e-08
-2.94902e-09
-1.52729e-08
-3.05203e-09
-1.38385e-08
-2.97194e-09
-1.25068e-08
-2.69573e-09
-1.1286e-08
-2.37971e-09
-1.00965e-08
-2.2538e-09
-8.86793e-09
-2.40569e-09
-7.63601e-09
-2.63034e-09
-6.54693e-09
-2.54048e-09
-5.72266e-09
-2.0148e-09
-5.03757e-09
-1.39363e-09
-4.24381e-09
-1.21078e-09
-3.21382e-09
-1.58146e-09
-2.19552e-09
-1.95284e-09
-1.45281e-09
-1.73082e-09
-9.47767e-10
-1.12798e-09
-2.55661e-10
-9.72931e-10
8.20955e-10
-1.5824e-09
1.85529e-09
-2.12099e-09
2.57696e-09
-1.92714e-09
3.2515e-09
-1.58016e-09
4.35369e-09
-1.98093e-09
5.39652e-09
-2.40501e-09
5.98689e-09
-2.16702e-09
6.55962e-09
-1.60061e-09
7.273e-09
-1.31962e-09
7.91991e-09
-1.4295e-09
8.72321e-09
-1.25549e-09
9.89496e-09
-1.77215e-09
1.41899e-09
7.42397e-05
3.60725e-06
7.30247e-05
3.42519e-06
7.18019e-05
3.42405e-06
7.05613e-05
3.46059e-06
6.93264e-05
3.57891e-06
6.80909e-05
3.65074e-06
6.68555e-05
3.69406e-06
6.56123e-05
3.7555e-06
6.43465e-05
3.7974e-06
6.30507e-05
3.82658e-06
6.17362e-05
3.89817e-06
6.04096e-05
3.97097e-06
5.90722e-05
4.02198e-06
5.77328e-05
4.04325e-06
5.63672e-05
4.03353e-06
5.49799e-05
4.0372e-06
5.35756e-05
4.0426e-06
5.21567e-05
4.08359e-06
5.0817e-05
4.19857e-06
4.95455e-05
4.24822e-06
4.82095e-05
4.14056e-06
4.67694e-05
4.01614e-06
4.53077e-05
4.02748e-06
4.39747e-05
4.1499e-06
4.27141e-05
4.18436e-06
4.14697e-05
4.09306e-06
4.01033e-05
3.93944e-06
3.86562e-05
3.99002e-06
3.73568e-05
4.20215e-06
3.60569e-05
4.34112e-06
3.45656e-05
4.17182e-06
3.31687e-05
3.78786e-06
3.19763e-05
3.6265e-06
3.08602e-05
3.72736e-06
2.97154e-05
3.94383e-06
2.83637e-05
3.88551e-06
2.70046e-05
3.6032e-06
2.58485e-05
3.47939e-06
2.47988e-05
3.48266e-06
2.37423e-05
3.62669e-06
2.26538e-05
3.67372e-06
2.14435e-05
3.25903e-06
2.02405e-05
3.07685e-06
1.92008e-05
3.12952e-06
1.82007e-05
3.25369e-06
1.715e-05
3.21161e-06
1.60368e-05
3.0752e-06
1.49716e-05
3.00434e-06
1.40134e-05
2.94143e-06
1.3061e-05
2.81733e-06
1.20901e-05
2.64157e-06
1.11738e-05
2.54555e-06
1.0376e-05
2.50961e-06
9.58734e-06
2.436e-06
8.82251e-06
2.22232e-06
8.07069e-06
2.13486e-06
7.34034e-06
2.28199e-06
6.59506e-06
2.42613e-06
5.98615e-06
2.2179e-06
5.39651e-06