/*--------------------------------*- C++ -*----------------------------------*\
| =========                 |                                                 |
| \\      /  F ield         | OpenFOAM: The Open Source CFD Toolbox           |
|  \\    /   O peration     | Version:  v2006                                 |
|   \\  /    A nd           | Website:  www.openfoam.com                      |
|    \\/     M anipulation  |                                                 |
\*---------------------------------------------------------------------------*/
FoamFile
{
    version     2.0;
    format      ascii;
    class       volVectorField;
    location    "2.4";
    object      U;
}
// * * * * * * * * * * * * * * * * * * * * * * * * * * * * * * * * * * * * * //

dimensions      [0 1 -1 0 0 0 0];


internalField   nonuniform List<vector> 
33000
(
(0.170274 0 0.00225941)
(0.177935 0 0.00202452)
(0.18552 0 0.00226359)
(0.182311 0 0.00226878)
(0.174434 0 0.0024262)
(0.172197 0 0.00251256)
(0.169996 0 0.00260346)
(0.166825 0 0.00267566)
(0.163565 0 0.00265502)
(0.160409 0 0.00261721)
(0.157248 0 0.0026808)
(0.15399 0 0.00276708)
(0.150636 0 0.00283008)
(0.1472 0 0.00290109)
(0.143789 0 0.00279073)
(0.140521 0 0.00265517)
(0.13733 0 0.00261245)
(0.134137 0 0.00267585)
(0.130692 0 0.00302632)
(0.126872 0 0.0033769)
(0.122934 0 0.00307631)
(0.11958 0 0.00253846)
(0.116617 0 0.00238035)
(0.113404 0 0.00283541)
(0.109705 0 0.00324643)
(0.105821 0 0.00309156)
(0.102317 0 0.00262315)
(0.0992941 0 0.00238408)
(0.0959743 0 0.00300149)
(0.0921145 0 0.00309338)
(0.0886233 0 0.00248385)
(0.0857278 0 0.0022763)
(0.0827108 0 0.00265928)
(0.0793012 0 0.00297243)
(0.07555 0 0.0030507)
(0.0722397 0 0.00216924)
(0.0696771 0 0.00186572)
(0.0669146 0 0.00241836)
(0.0637382 0 0.00270788)
(0.0603545 0 0.0027817)
(0.0569241 0 0.00259569)
(0.0541615 0 0.00187527)
(0.0520226 0 0.0016317)
(0.0495062 0 0.00224355)
(0.0465195 0 0.00244302)
(0.0437204 0 0.00201199)
(0.0414337 0 0.00163747)
(0.0391209 0 0.00184389)
(0.0366071 0 0.00207082)
(0.0341153 0 0.00186596)
(0.0320146 0 0.00151017)
(0.0301334 0 0.00140432)
(0.0281068 0 0.00167522)
(0.0259961 0 0.00163719)
(0.02405 0 0.00144485)
(0.0223342 0 0.00133974)
(0.0204623 0 0.00163977)
(0.0183119 0 0.00172216)
(0.0161929 0 0.00160769)
(0.0143659 0 0.00133909)
(0.0129386 0 0.00105485)
(0.0114628 0 0.00120819)
(0.00963803 0 0.0015368)
(0.00779022 0 0.00133702)
(0.00629776 0 0.00106391)
(0.0052149 0 0.000732203)
(0.00423277 0 0.000768758)
(0.00307804 0 0.00100977)
(0.00192023 0 0.000790052)
(0.000942339 0 0.000633047)
(-4.52237e-05 0 0.000785898)
(-0.000992931 0 0.000710928)
(-0.00164891 0 0.000305011)
(-0.0019673 0 -0.000154916)
(-0.00225129 0 9.23271e-05)
(-0.00239432 0 -0.00032944)
(-0.002129 0 -0.000618192)
(-0.000947151 0 -8.50457e-05)
(-0.00414363 0 -0.000157437)
(-0.00213371 0 0.000538267)
(-0.00304132 0 0.00075522)
(-0.00291762 0 0.000781798)
(-0.00344185 0 0.000346792)
(-0.0036915 0 -0.000166921)
(-0.00403102 0 -0.000180805)
(-0.004277 0 -7.07529e-05)
(-0.00429763 0 0.000140999)
(-0.00453578 0 0.000337379)
(-0.00471578 0 0.000392739)
(-0.00495521 0 0.000256091)
(-0.00508647 0 3.39778e-05)
(-0.00507702 0 -6.99302e-05)
(-0.00505387 0 -5.815e-05)
(-0.00500278 0 -7.01666e-06)
(-0.00501781 0 -0.000104279)
(-0.004798 0 -0.000242234)
(-0.00459333 0 -0.000522929)
(-0.00391133 0 -0.000634458)
(-0.00352107 0 -0.000851155)
(-0.00257145 0 -0.00040663)
(-0.00247781 0 0.000137025)
(-0.00218386 0 0.000428871)
(-0.00234835 0 0.000345938)
(-0.00226721 0 -0.000107402)
(-0.00223613 0 -0.000162678)
(-0.00227885 0 -0.000161817)
(-0.00225146 0 -6.16914e-05)
(-0.00211419 0 -0.000102207)
(-0.00198572 0 1.55635e-05)
(-0.00191544 0 6.10883e-06)
(-0.00183834 0 -5.62081e-05)
(-0.00171395 0 -8.70386e-05)
(-0.00163385 0 -0.000166359)
(-0.00138599 0 -0.000213445)
(-0.00119773 0 -0.000366613)
(-0.000709837 0 -0.000444755)
(-0.000356799 0 -0.000682637)
(0.000393451 0 -0.000390363)
(0.000512137 0 -3.88324e-05)
(0.000856737 0 0.000221412)
(0.000826643 0 0.000241145)
(0.000944906 0 -5.04098e-05)
(0.000968469 0 -7.99044e-05)
(0.000904615 0 -0.000105248)
(0.000956714 0 -3.38092e-05)
(0.00100899 0 -2.55385e-05)
(0.00107487 0 -1.1447e-05)
(0.00114394 0 -1.63024e-05)
(0.00114807 0 -4.69641e-09)
(0.00115542 0 -4.64075e-05)
(0.00122455 0 -5.44384e-05)
(0.00127659 0 -1.42694e-05)
(0.00127639 0 7.34777e-06)
(0.00128998 0 -1.06354e-06)
(0.00129389 0 -2.056e-05)
(0.00134534 0 -2.91114e-05)
(0.00134099 0 9.41351e-06)
(0.0013165 0 1.61603e-05)
(0.00129252 0 1.19101e-05)
(0.00129322 0 -4.04773e-06)
(0.00127503 0 3.56045e-05)
(0.00120839 0 4.31444e-05)
(0.0011678 0 4.08453e-05)
(0.00111621 0 4.19552e-05)
(0.0010499 0 5.84519e-05)
(0.000967837 0 6.444e-05)
(0.000892496 0 5.57294e-05)
(0.00083334 0 5.16465e-05)
(0.000744697 0 8.18122e-05)
(0.000628511 0 8.69852e-05)
(0.000529653 0 9.25522e-05)
(0.000402234 0 9.61515e-05)
(0.000288539 0 7.42735e-05)
(0.000208049 0 7.46798e-05)
(9.13447e-05 0 0.00010518)
(-5.68391e-05 0 0.000115314)
(-0.000200031 0 0.000110824)
(-0.000331347 0 9.592e-05)
(-0.00044689 0 9.91091e-05)
(-0.000593502 0 0.000123025)
(-0.000759378 0 0.000128195)
(-0.000918122 0 0.000117518)
(-0.00105691 0 0.000111553)
(-0.00120898 0 0.000131663)
(-0.0013887 0 0.000140991)
(-0.00156799 0 0.000133285)
(-0.00173151 0 0.000125534)
(-0.00189534 0 0.000138621)
(-0.00208111 0 0.000149064)
(-0.00227377 0 0.000150851)
(-0.0024662 0 0.00014288)
(-0.00263816 0 0.000135713)
(-0.00281682 0 0.000149481)
(-0.00301924 0 0.000156881)
(-0.00321732 0 0.000154437)
(-0.00341002 0 0.000149432)
(-0.00359697 0 0.000145192)
(-0.00378828 0 0.000154173)
(-0.00398684 0 0.000155096)
(-0.00418136 0 0.000155108)
(-0.00437972 0 0.000155527)
(-0.00457399 0 0.000149025)
(-0.00476263 0 0.000148421)
(-0.00495739 0 0.000153069)
(-0.00515274 0 0.000152647)
(-0.00534508 0 0.000147624)
(-0.0055261 0 0.000140663)
(-0.00570938 0 0.000148211)
(-0.00589912 0 0.000148988)
(-0.00608648 0 0.000144849)
(-0.00626434 0 0.00013479)
(-0.00643783 0 0.000138416)
(-0.00661753 0 0.000138511)
(-0.00679026 0 0.000135672)
(-0.00696036 0 0.000132297)
(-0.00712498 0 0.00012754)
(-0.00728684 0 0.000126214)
(-0.00744815 0 0.000124989)
(-0.00760532 0 0.000120162)
(-0.0077526 0 0.000113231)
(-0.00789727 0 0.00011471)
(-0.00804201 0 0.000111932)
(-0.00818284 0 0.000108417)
(-0.0083187 0 0.000104415)
(-0.00844884 0 0.000101099)
(-0.00857357 0 9.30422e-05)
(-0.0086873 0 8.90965e-05)
(-0.00880543 0 9.18429e-05)
(-0.00892013 0 8.67835e-05)
(-0.00902603 0 8.06119e-05)
(-0.00912341 0 7.33278e-05)
(-0.00921838 0 7.48397e-05)
(-0.00931252 0 6.98835e-05)
(-0.00939647 0 6.53065e-05)
(-0.00947787 0 6.02432e-05)
(-0.00954934 0 5.39705e-05)
(-0.00961808 0 5.41956e-05)
(-0.00968505 0 4.94713e-05)
(-0.00974379 0 4.50616e-05)
(-0.0097997 0 4.1922e-05)
(-0.00985099 0 3.57229e-05)
(-0.00988932 0 2.73386e-05)
(-0.00992506 0 2.8636e-05)
(-0.00996006 0 2.50245e-05)
(-0.00998922 0 2.08773e-05)
(-0.0100139 0 1.66363e-05)
(-0.0100318 0 1.29632e-05)
(-0.0100463 0 8.51342e-06)
(-0.0100523 0 1.84073e-06)
(-0.0100544 0 1.52643e-06)
(-0.0100547 0 -2.12162e-06)
(-0.0100496 0 -5.66947e-06)
(-0.0100404 0 -9.3672e-06)
(-0.0100261 0 -1.32623e-05)
(-0.0100057 0 -1.8301e-05)
(-0.00998159 0 -1.88496e-05)
(-0.0099562 0 -2.07893e-05)
(-0.00992754 0 -2.41484e-05)
(-0.0098934 0 -2.98996e-05)
(-0.00985459 0 -3.17349e-05)
(-0.00981417 0 -3.34769e-05)
(-0.00976975 0 -3.60591e-05)
(-0.00972242 0 -3.85183e-05)
(-0.0096721 0 -4.07702e-05)
(-0.00961857 0 -4.30209e-05)
(-0.00956201 0 -4.53086e-05)
(-0.00950342 0 -4.64354e-05)
(-0.00944383 0 -4.85063e-05)
(-0.00938046 0 -5.14231e-05)
(-0.00931421 0 -5.23851e-05)
(-0.00924673 0 -5.371e-05)
(-0.00917727 0 -5.51714e-05)
(-0.00910611 0 -5.64713e-05)
(-0.00903338 0 -5.75266e-05)
(-0.0089596 0 -5.81192e-05)
(-0.00888484 0 -5.91001e-05)
(-0.00880818 0 -6.11821e-05)
(-0.0087286 0 -6.3088e-05)
(-0.00864902 0 -6.26308e-05)
(-0.00856937 0 -6.33567e-05)
(-0.00848816 0 -6.41013e-05)
(-0.00840577 0 -6.5275e-05)
(-0.00832265 0 -6.51409e-05)
(-0.00823972 0 -6.54225e-05)
(-0.00815612 0 -6.5784e-05)
(-0.00807214 0 -6.60726e-05)
(-0.00798763 0 -6.66494e-05)
(-0.00790255 0 -6.69883e-05)
(-0.00781721 0 -6.72867e-05)
(-0.00773131 0 -6.76615e-05)
(-0.00764533 0 -6.73761e-05)
(-0.00755967 0 -6.71365e-05)
(-0.00747433 0 -6.69604e-05)
(-0.00738925 0 -6.69265e-05)
(-0.00730426 0 -6.68515e-05)
(-0.00721931 0 -6.6781e-05)
(-0.00713441 0 -6.6634e-05)
(-0.00704976 0 -6.63994e-05)
(-0.00696542 0 -6.60249e-05)
(-0.00688153 0 -6.5579e-05)
(-0.00679817 0 -6.51909e-05)
(-0.00671518 0 -6.50038e-05)
(-0.00663257 0 -6.47264e-05)
(-0.00655029 0 -6.45354e-05)
(-0.00646826 0 -6.42918e-05)
(-0.00638665 0 -6.39348e-05)
(-0.00630553 0 -6.35186e-05)
(-0.00622494 0 -6.31261e-05)
(-0.00614481 0 -6.28017e-05)
(-0.0060651 0 -6.24794e-05)
(-0.00598586 0 -6.21061e-05)
(-0.00590713 0 -6.17107e-05)
(-0.00582893 0 -6.12374e-05)
(-0.00575142 0 -6.06464e-05)
(-0.00567464 0 -6.00661e-05)
(-0.00559857 0 -5.94956e-05)
(-0.00552321 0 -5.89224e-05)
(-0.00544862 0 -5.82893e-05)
(-0.00537482 0 -5.76615e-05)
(-0.00530179 0 -5.70491e-05)
(-0.00522953 0 -5.64176e-05)
(-0.00515808 0 -5.57738e-05)
(-0.00508742 0 -5.51515e-05)
(-0.00501752 0 -5.45404e-05)
(-0.00494839 0 -5.39544e-05)
(-0.00487997 0 -5.34227e-05)
(-0.00481223 0 -5.28748e-05)
(-0.00474521 0 -5.23011e-05)
(-0.00467893 0 -5.17525e-05)
(-0.00461333 0 -5.1234e-05)
(-0.00454842 0 -5.06842e-05)
(-0.00448423 0 -5.01179e-05)
(-0.00442077 0 -4.95475e-05)
(-0.00435805 0 -4.89681e-05)
(-0.00429606 0 -4.83864e-05)
(-0.00423482 0 -4.78108e-05)
(-0.00417431 0 -4.7234e-05)
(-0.00411454 0 -4.66502e-05)
(-0.00405551 0 -4.6075e-05)
(-0.0039972 0 -4.55052e-05)
(-0.00393961 0 -4.49408e-05)
(-0.00388274 0 -4.43822e-05)
(-0.00382658 0 -4.38295e-05)
(-0.00377114 0 -4.32926e-05)
(-0.00371638 0 -4.27504e-05)
(-0.00366233 0 -4.2194e-05)
(-0.00360899 0 -4.16182e-05)
(-0.00355638 0 -4.10359e-05)
(-0.00350449 0 -4.04754e-05)
(-0.00345329 0 -3.99498e-05)
(-0.00340273 0 -3.94512e-05)
(-0.00335277 0 -3.89754e-05)
(-0.0033034 0 -3.85239e-05)
(-0.00325459 0 -3.81143e-05)
(-0.00320628 0 -3.77611e-05)
(-0.00315842 0 -3.74164e-05)
(-0.00311104 0 -3.70482e-05)
(-0.00306414 0 -3.66588e-05)
(-0.00301775 0 -3.62605e-05)
(-0.00297187 0 -3.58688e-05)
(-0.00292648 0 -3.54775e-05)
(-0.0028816 0 -3.50693e-05)
(-0.00283723 0 -3.46605e-05)
(-0.00279337 0 -3.42684e-05)
(-0.00274998 0 -3.39039e-05)
(-0.00270704 0 -3.35562e-05)
(-0.00266451 0 -3.32277e-05)
(-0.00262239 0 -3.29227e-05)
(-0.00258063 0 -3.26397e-05)
(-0.00253924 0 -3.23652e-05)
(-0.00249821 0 -3.20797e-05)
(-0.00245757 0 -3.17773e-05)
(-0.00241733 0 -3.14569e-05)
(-0.0023775 0 -3.11201e-05)
(-0.00233809 0 -3.07707e-05)
(-0.00229911 0 -3.04271e-05)
(-0.00226055 0 -3.01068e-05)
(-0.00222237 0 -2.98108e-05)
(-0.00218454 0 -2.95328e-05)
(-0.00214706 0 -2.92744e-05)
(-0.00210991 0 -2.90341e-05)
(-0.00207308 0 -2.87918e-05)
(-0.00203658 0 -2.85227e-05)
(-0.00200044 0 -2.82173e-05)
(-0.00196471 0 -2.78894e-05)
(-0.00192939 0 -2.756e-05)
(-0.00189447 0 -2.72419e-05)
(-0.00185993 0 -2.69383e-05)
(-0.00182576 0 -2.66521e-05)
(-0.00179194 0 -2.63969e-05)
(-0.00175843 0 -2.61643e-05)
(-0.00172522 0 -2.59398e-05)
(-0.00169231 0 -2.57039e-05)
(-0.00165973 0 -2.5447e-05)
(-0.00162749 0 -2.51737e-05)
(-0.00159562 0 -2.48915e-05)
(-0.0015641 0 -2.46021e-05)
(-0.00153295 0 -2.43044e-05)
(-0.00150218 0 -2.40089e-05)
(-0.00147176 0 -2.37371e-05)
(-0.00144168 0 -2.34951e-05)
(-0.00141191 0 -2.32653e-05)
(-0.00138246 0 -2.30203e-05)
(-0.00135336 0 -2.27419e-05)
(-0.00132465 0 -2.24249e-05)
(-0.00129636 0 -2.20786e-05)
(-0.00126849 0 -2.17282e-05)
(-0.00124104 0 -2.13965e-05)
(-0.00121397 0 -2.10959e-05)
(-0.00118726 0 -2.08224e-05)
(-0.00116089 0 -2.05679e-05)
(-0.00113485 0 -2.03128e-05)
(-0.00110916 0 -2.00362e-05)
(-0.00108387 0 -1.97278e-05)
(-0.00105899 0 -1.93916e-05)
(-0.00103453 0 -1.90428e-05)
(-0.00101051 0 -1.86999e-05)
(-0.000986881 0 -1.83915e-05)
(-0.000963606 0 -1.81352e-05)
(-0.000940639 0 -1.79147e-05)
(-0.000917968 0 -1.76897e-05)
(-0.000895622 0 -1.74304e-05)
(-0.000873639 0 -1.71404e-05)
(-0.000852036 0 -1.68359e-05)
(-0.000830802 0 -1.65261e-05)
(-0.000809943 0 -1.62243e-05)
(-0.000789439 0 -1.59628e-05)
(-0.000769252 0 -1.57328e-05)
(-0.000749378 0 -1.5486e-05)
(-0.000729853 0 -1.52047e-05)
(-0.000710705 0 -1.48958e-05)
(-0.000691936 0 -1.45996e-05)
(-0.000673518 0 -1.4331e-05)
(-0.000655415 0 -1.40984e-05)
(-0.000637608 0 -1.38694e-05)
(-0.000620077 0 -1.36395e-05)
(-0.000602851 0 -1.33759e-05)
(-0.000585941 0 -1.31376e-05)
(-0.000569277 0 -1.29578e-05)
(-0.00055301 0 -1.27437e-05)
(-0.000537125 0 -1.26605e-05)
(-0.000521281 0 -1.22417e-05)
(-0.00050605 0 -1.16287e-05)
(-0.000491002 0 -1.12105e-05)
(-0.000475492 0 -1.14428e-05)
(-0.00046123 0 -1.14271e-05)
(-0.000447807 0 -1.33568e-05)
(-0.000432916 0 -1.22833e-05)
(-0.000421607 0 -9.20335e-06)
(-0.000407713 0 -6.40403e-06)
(-0.000402885 0 -6.24226e-06)
(-0.000389204 0 -8.24444e-06)
(-0.000379452 0 -8.49217e-06)
(-0.000367399 0 -8.85025e-06)
(-0.000356174 0 -8.86896e-06)
(-0.000344704 0 -8.74389e-06)
(-0.000333653 0 -8.62962e-06)
(-0.00032266 0 -8.53212e-06)
(-0.000311893 0 -8.43171e-06)
(-0.000301216 0 -8.38868e-06)
(-0.000290552 0 -8.07308e-06)
(-0.000280478 0 -7.68974e-06)
(-0.000270362 0 -7.66498e-06)
(-0.000260688 0 -7.56545e-06)
(-0.000251314 0 -8.02079e-06)
(-0.000241506 0 -7.58759e-06)
(-0.000233037 0 -6.7854e-06)
(-0.000223666 0 -6.11224e-06)
(-0.000216702 0 -6.07e-06)
(-0.00020742 0 -6.60572e-06)
(-0.000199526 0 -6.3891e-06)
(-0.000191255 0 -6.28411e-06)
(-0.000183349 0 -6.00672e-06)
(-0.000175902 0 -5.53615e-06)
(-0.00016856 0 -4.98927e-06)
(-0.000162082 0 -4.82571e-06)
(-0.000154965 0 -4.98121e-06)
(-0.00014805 0 -4.83621e-06)
(-0.000141984 0 -4.9404e-06)
(-0.000135713 0 -5.80321e-06)
(-0.000128953 0 -3.96029e-06)
(-0.000124015 0 -2.6798e-06)
(-0.000118387 0 -1.02755e-06)
(-0.000108718 0 -3.23428e-06)
(-0.000104514 0 -2.3216e-06)
(-0.000100763 0 -1.58026e-05)
(-9.1111e-05 0 -9.72876e-06)
(-0.00010472 0 -3.13285e-06)
(-9.43808e-05 0 1.20334e-05)
(-0.00015475 0 9.48565e-06)
(-0.000146522 0 8.25315e-06)
(-0.000165677 0 -4.05541e-06)
(-0.000173242 0 -7.31812e-06)
(-0.000176678 0 -8.61088e-06)
(-0.000177772 0 -8.9235e-06)
(-0.000177709 0 -8.68728e-06)
(-0.000177142 0 -8.11518e-06)
(-0.000176303 0 -7.50043e-06)
(-0.000175263 0 -6.98905e-06)
(-0.000174096 0 -6.53695e-06)
(-0.000172795 0 -6.15487e-06)
(-0.000171225 0 -5.89041e-06)
(-0.000169306 0 -5.68436e-06)
(-0.000167143 0 -5.4191e-06)
(-0.000164892 0 -5.07341e-06)
(-0.000162605 0 -4.73322e-06)
(-0.000160207 0 -4.47725e-06)
(-0.000157609 0 -4.30631e-06)
(-0.000154821 0 -4.13132e-06)
(-0.00015193 0 -3.9487e-06)
(-0.000149007 0 -3.72963e-06)
(-0.000146111 0 -3.46645e-06)
(-0.0001433 0 -3.17408e-06)
(-0.0001406 0 -2.87624e-06)
(-0.000137996 0 -2.60329e-06)
(-0.000135447 0 -2.37148e-06)
(-0.000132898 0 -2.19186e-06)
(-0.0001303 0 -2.07622e-06)
(-0.000127591 0 -2.0573e-06)
(-0.0001247 0 -2.16131e-06)
(-0.000121602 0 -2.41988e-06)
(-0.000118263 0 -2.76989e-06)
(-0.000114567 0 -3.1447e-06)
(-0.000110513 0 -3.50626e-06)
(-0.000106191 0 -3.78704e-06)
(-0.000101671 0 -3.95582e-06)
(-9.70495e-05 0 -4.01323e-06)
(-9.24082e-05 0 -3.98442e-06)
(-8.78088e-05 0 -3.8988e-06)
(-8.33023e-05 0 -3.77445e-06)
(-7.8943e-05 0 -3.60725e-06)
(-7.4792e-05 0 -3.38251e-06)
(-7.09228e-05 0 -3.09838e-06)
(-6.73735e-05 0 -2.79307e-06)
(-6.41133e-05 0 -2.52233e-06)
(-6.10493e-05 0 -2.34211e-06)
(-5.80582e-05 0 -2.29267e-06)
(-5.5025e-05 0 -2.37238e-06)
(-5.18455e-05 0 -2.55617e-06)
(-4.84218e-05 0 -2.80577e-06)
(-4.47155e-05 0 -3.06161e-06)
(-4.07963e-05 0 -3.20138e-06)
(-3.686e-05 0 -3.0774e-06)
(-3.32031e-05 0 -2.65373e-06)
(-3.00707e-05 0 -2.12728e-06)
(-2.73422e-05 0 -1.81446e-06)
(-2.45948e-05 0 -2.02467e-06)
(-2.13905e-05 0 -2.62396e-06)
(-1.77513e-05 0 -2.92003e-06)
(-1.43834e-05 0 -2.48081e-06)
(-1.20448e-05 0 -1.32448e-06)
(-1.07743e-05 0 -4.168e-07)
(-9.71407e-06 0 -4.03167e-07)
(-7.8565e-06 0 -1.37043e-06)
(-5.29963e-06 0 -1.86725e-06)
(-3.20681e-06 0 -1.30446e-06)
(-2.16344e-06 0 -3.13669e-07)
(-1.36487e-06 0 -3.46927e-07)
(6.60043e-07 0 -1.84655e-06)
(3.77917e-06 0 -2.58561e-06)
(6.49309e-06 0 -1.97151e-06)
(8.61855e-06 0 -1.46637e-06)
(1.14451e-05 0 -2.7512e-06)
(1.54053e-05 0 -3.90177e-06)
(1.88338e-05 0 -2.55445e-06)
(2.08031e-05 0 -1.09629e-06)
(2.29603e-05 0 -1.57864e-06)
(2.18298e-05 0 -6.88694e-07)
(3.18767e-05 0 -5.77792e-07)
(2.26446e-05 0 2.22167e-06)
(0.170201 0 0.00684406)
(0.177759 0 0.0062681)
(0.185162 0 0.00630199)
(0.181906 0 0.00629678)
(0.173963 0 0.00671163)
(0.171617 0 0.00696098)
(0.16937 0 0.00713251)
(0.166258 0 0.00730004)
(0.163037 0 0.00733812)
(0.159826 0 0.00730823)
(0.156598 0 0.00746482)
(0.153322 0 0.00766999)
(0.149999 0 0.0078225)
(0.14666 0 0.00793671)
(0.143314 0 0.0077578)
(0.139929 0 0.00760515)
(0.136482 0 0.00756219)
(0.133071 0 0.00766526)
(0.12966 0 0.00836692)
(0.126193 0 0.00898191)
(0.122728 0 0.00837171)
(0.119365 0 0.00741916)
(0.115981 0 0.00723101)
(0.112518 0 0.00817268)
(0.109031 0 0.00881268)
(0.105621 0 0.0085487)
(0.102283 0 0.00757358)
(0.0990226 0 0.00723079)
(0.0956215 0 0.00856646)
(0.091936 0 0.00898757)
(0.0880868 0 0.00758016)
(0.0848556 0 0.00687923)
(0.0819122 0 0.00727414)
(0.079008 0 0.00804101)
(0.0759256 0 0.00859784)
(0.0724438 0 0.00713416)
(0.0692386 0 0.00627319)
(0.0662907 0 0.00690148)
(0.0635539 0 0.00749448)
(0.0606262 0 0.00784562)
(0.057486 0 0.00771002)
(0.0545268 0 0.00583608)
(0.0519488 0 0.00522553)
(0.0494921 0 0.00636722)
(0.0469313 0 0.00686142)
(0.0441621 0 0.00624502)
(0.0414491 0 0.00550469)
(0.0388275 0 0.00560814)
(0.0364483 0 0.00596126)
(0.0340827 0 0.00550619)
(0.0318423 0 0.00473198)
(0.0296354 0 0.00459471)
(0.0274793 0 0.00502971)
(0.0253886 0 0.00483948)
(0.0234335 0 0.00427603)
(0.0216955 0 0.00403854)
(0.0199129 0 0.0046511)
(0.0179333 0 0.00503552)
(0.015914 0 0.00484709)
(0.0141717 0 0.00380446)
(0.0127227 0 0.00324727)
(0.0110956 0 0.00375268)
(0.00928381 0 0.00453979)
(0.00752898 0 0.00406468)
(0.00609759 0 0.00300092)
(0.00492711 0 0.00235828)
(0.00371751 0 0.00243988)
(0.00266459 0 0.00281443)
(0.00162573 0 0.00250793)
(0.000465992 0 0.00230759)
(-0.000578377 0 0.00235246)
(-0.00137788 0 0.00188149)
(-0.00206569 0 0.0011897)
(-0.00276299 0 0.000567924)
(-0.00330086 0 0.000906818)
(-0.00385961 0 0.000184723)
(-0.00455549 0 -0.000139422)
(-0.0048461 0 0.000290674)
(-0.00415307 0 6.37734e-05)
(-0.0038829 0 -0.000128564)
(-0.00289174 0 0.000772027)
(-0.00596601 0 0.000167702)
(-0.00382937 0 0.000994943)
(-0.00434724 0 0.000891644)
(-0.00379781 0 0.000923413)
(-0.00383669 0 0.000575163)
(-0.00417306 0 0.000299538)
(-0.00455208 0 0.000387885)
(-0.00497222 0 0.000256731)
(-0.00517083 0 0.000350147)
(-0.00512953 0 0.000133244)
(-0.00515921 0 3.33437e-05)
(-0.00520279 0 -7.19826e-05)
(-0.00517682 0 -3.95477e-05)
(-0.00521218 0 -0.000227626)
(-0.00515336 0 -0.000433544)
(-0.00510204 0 -0.000855698)
(-0.00505459 0 -0.00107453)
(-0.00498531 0 -0.00124633)
(-0.0049911 0 -0.00120554)
(-0.00436082 0 -0.000792372)
(-0.00395248 0 -0.000624124)
(-0.0029637 0 -0.000227432)
(-0.00279596 0 -7.30702e-05)
(-0.00235905 0 0.000183678)
(-0.00224405 0 0.000193048)
(-0.00210494 0 -0.000197716)
(-0.00204518 0 -0.000322101)
(-0.00198039 0 -0.000332595)
(-0.00204667 0 -0.000241147)
(-0.00194897 0 -0.00026499)
(-0.00179457 0 -0.0002389)
(-0.00166363 0 -0.000346647)
(-0.00149997 0 -0.000480233)
(-0.00138372 0 -0.000692872)
(-0.0012734 0 -0.000884798)
(-0.00111117 0 -0.00105409)
(-0.00109642 0 -0.000972408)
(-0.000673799 0 -0.000690412)
(-0.00037722 0 -0.000723858)
(0.000418174 0 -0.000373393)
(0.000587602 0 -0.000177597)
(0.000901192 0 0.000149173)
(0.000956993 0 0.00012311)
(0.00111488 0 -0.000131737)
(0.00111954 0 -0.000154751)
(0.00106252 0 -0.00020838)
(0.00110395 0 -8.99627e-05)
(0.00116812 0 -2.334e-05)
(0.00120123 0 -6.21957e-05)
(0.00125909 0 -0.000144432)
(0.00128449 0 -5.46982e-05)
(0.00129797 0 -3.17989e-05)
(0.00131423 0 -1.87191e-05)
(0.00133241 0 -6.27556e-05)
(0.0013541 0 -4.82927e-05)
(0.00134483 0 5.06834e-05)
(0.00133132 0 5.13264e-05)
(0.00132721 0 4.13515e-05)
(0.00131177 0 1.81938e-05)
(0.00127449 0 0.000115876)
(0.00122285 0 0.000116827)
(0.00119689 0 0.000113666)
(0.0011419 0 0.000137983)
(0.00106551 0 0.000182959)
(0.000996608 0 0.000178218)
(0.000935008 0 0.000161297)
(0.000859712 0 0.000173169)
(0.000754139 0 0.000247557)
(0.000650782 0 0.000245433)
(0.000562957 0 0.000262743)
(0.000448713 0 0.000283646)
(0.000334801 0 0.000228966)
(0.000229586 0 0.000230556)
(0.000107623 0 0.000312809)
(-3.00668e-05 0 0.000338847)
(-0.000165627 0 0.000319759)
(-0.000292547 0 0.000288068)
(-0.000426937 0 0.000308725)
(-0.000575486 0 0.000367733)
(-0.00073483 0 0.00037783)
(-0.00089325 0 0.00034897)
(-0.00104185 0 0.000337967)
(-0.00119571 0 0.000389433)
(-0.00136962 0 0.000419363)
(-0.0015499 0 0.000404556)
(-0.00172192 0 0.000382419)
(-0.0018899 0 0.000409461)
(-0.00206725 0 0.000441576)
(-0.00226145 0 0.000452984)
(-0.00245161 0 0.000427894)
(-0.00262803 0 0.000409248)
(-0.00281129 0 0.000449319)
(-0.00301367 0 0.000471072)
(-0.00320922 0 0.000456806)
(-0.00339402 0 0.000446956)
(-0.00359062 0 0.000445473)
(-0.00378752 0 0.000459658)
(-0.00398089 0 0.000460232)
(-0.00417277 0 0.000460822)
(-0.00436752 0 0.000461726)
(-0.00456333 0 0.000451308)
(-0.00475838 0 0.000453159)
(-0.00495521 0 0.00046126)
(-0.00514979 0 0.00045451)
(-0.00534005 0 0.000441409)
(-0.00552523 0 0.000427303)
(-0.00571016 0 0.000441671)
(-0.00589637 0 0.000440467)
(-0.00608073 0 0.000432763)
(-0.00626318 0 0.000414036)
(-0.00644345 0 0.000419586)
(-0.0066218 0 0.000414842)
(-0.00679511 0 0.000402966)
(-0.00696274 0 0.000394293)
(-0.00712628 0 0.000384655)
(-0.007291 0 0.000382561)
(-0.00745512 0 0.000375091)
(-0.0076108 0 0.000359359)
(-0.0077603 0 0.000342626)
(-0.00790651 0 0.000341762)
(-0.00804865 0 0.00033444)
(-0.00819171 0 0.000327896)
(-0.00832791 0 0.000310825)
(-0.00845495 0 0.000300251)
(-0.00857887 0 0.000280288)
(-0.0086984 0 0.000273038)
(-0.00881966 0 0.000276857)
(-0.00893162 0 0.000256124)
(-0.00903501 0 0.000241531)
(-0.00913518 0 0.000224227)
(-0.00923361 0 0.000226218)
(-0.00932598 0 0.000207156)
(-0.009409 0 0.000194524)
(-0.00948933 0 0.000180854)
(-0.00956286 0 0.000163607)
(-0.00963207 0 0.000161004)
(-0.00969685 0 0.000146851)
(-0.00975496 0 0.000134659)
(-0.00981125 0 0.000126789)
(-0.00986064 0 0.000105871)
(-0.00990166 0 8.62846e-05)
(-0.00994037 0 8.46106e-05)
(-0.00997176 0 7.38686e-05)
(-0.0100014 0 6.49884e-05)
(-0.0100257 0 4.91015e-05)
(-0.0100426 0 3.73456e-05)
(-0.0100558 0 2.50549e-05)
(-0.0100634 0 8.1973e-06)
(-0.0100669 0 3.68687e-06)
(-0.0100652 0 -6.79026e-06)
(-0.0100605 0 -1.60198e-05)
(-0.0100508 0 -2.90222e-05)
(-0.0100352 0 -4.04008e-05)
(-0.0100155 0 -5.37074e-05)
(-0.00999179 0 -5.82426e-05)
(-0.00996426 0 -6.55431e-05)
(-0.00993313 0 -7.39464e-05)
(-0.00990029 0 -8.59781e-05)
(-0.0098647 0 -9.23481e-05)
(-0.0098237 0 -0.000100376)
(-0.00977796 0 -0.000108647)
(-0.0097302 0 -0.000115098)
(-0.00967999 0 -0.00012315)
(-0.00962584 0 -0.000129997)
(-0.00956824 0 -0.000136688)
(-0.00950949 0 -0.00013917)
(-0.00944988 0 -0.000144655)
(-0.00938697 0 -0.000152958)
(-0.00932075 0 -0.000157789)
(-0.00925237 0 -0.000161842)
(-0.00918248 0 -0.000166009)
(-0.00911064 0 -0.000169869)
(-0.00903731 0 -0.00017291)
(-0.00896286 0 -0.000175511)
(-0.00888665 0 -0.000179122)
(-0.00880883 0 -0.000184185)
(-0.00872997 0 -0.000188043)
(-0.00865162 0 -0.000186696)
(-0.00857196 0 -0.000190214)
(-0.00849011 0 -0.000192676)
(-0.00840773 0 -0.00019549)
(-0.00832466 0 -0.000195501)
(-0.00824132 0 -0.000196301)
(-0.00815744 0 -0.000197659)
(-0.00807299 0 -0.000198642)
(-0.00798829 0 -0.000199973)
(-0.00790327 0 -0.000200877)
(-0.00781791 0 -0.000201749)
(-0.00773228 0 -0.000202651)
(-0.00764659 0 -0.000202159)
(-0.00756078 0 -0.000201721)
(-0.0074753 0 -0.000200657)
(-0.00739019 0 -0.000200356)
(-0.00730529 0 -0.000200028)
(-0.0072205 0 -0.000200135)
(-0.00713563 0 -0.00019975)
(-0.00705099 0 -0.000199168)
(-0.00696649 0 -0.00019837)
(-0.00688223 0 -0.000197348)
(-0.0067983 0 -0.000196281)
(-0.00671493 0 -0.000195365)
(-0.00663215 0 -0.000194406)
(-0.00654967 0 -0.000193782)
(-0.00646753 0 -0.000192932)
(-0.00638586 0 -0.000191864)
(-0.00630466 0 -0.000190676)
(-0.00622395 0 -0.000189514)
(-0.00614375 0 -0.000188463)
(-0.00606407 0 -0.000187378)
(-0.00598495 0 -0.000186175)
(-0.0059064 0 -0.00018493)
(-0.00582842 0 -0.000183503)
(-0.00575106 0 -0.000181827)
(-0.00567434 0 -0.000180159)
(-0.0055983 0 -0.000178474)
(-0.00552297 0 -0.000176747)
(-0.00544838 0 -0.000174898)
(-0.00537453 0 -0.000173061)
(-0.00530143 0 -0.000171238)
(-0.00522908 0 -0.000169382)
(-0.00515749 0 -0.000167521)
(-0.00508664 0 -0.000165692)
(-0.00501656 0 -0.000163892)
(-0.00494722 0 -0.000162146)
(-0.00487862 0 -0.000160502)
(-0.00481076 0 -0.000158825)
(-0.00474364 0 -0.0001571)
(-0.00467726 0 -0.000155417)
(-0.00461162 0 -0.000153793)
(-0.00454672 0 -0.000152108)
(-0.00448257 0 -0.000150393)
(-0.00441915 0 -0.000148673)
(-0.00435647 0 -0.000146932)
(-0.00429454 0 -0.000145182)
(-0.00423335 0 -0.000143446)
(-0.0041729 0 -0.000141711)
(-0.0041132 0 -0.000139968)
(-0.00405422 0 -0.000138252)
(-0.00399597 0 -0.000136556)
(-0.00393845 0 -0.000134871)
(-0.00388164 0 -0.000133184)
(-0.00382556 0 -0.000131492)
(-0.00377022 0 -0.000129832)
(-0.0037156 0 -0.000128182)
(-0.00366169 0 -0.000126529)
(-0.00360847 0 -0.000124853)
(-0.00355593 0 -0.000123163)
(-0.00350406 0 -0.000121517)
(-0.00345284 0 -0.000119963)
(-0.00340225 0 -0.000118501)
(-0.00335225 0 -0.000117114)
(-0.00330281 0 -0.000115778)
(-0.00325395 0 -0.000114518)
(-0.00320563 0 -0.000113378)
(-0.00315784 0 -0.000112279)
(-0.00311056 0 -0.000111147)
(-0.00306378 0 -0.000109963)
(-0.00301752 0 -0.000108746)
(-0.00297179 0 -0.000107552)
(-0.00292654 0 -0.000106384)
(-0.00288177 0 -0.000105204)
(-0.00283745 0 -0.00010403)
(-0.0027936 0 -0.000102891)
(-0.00275018 0 -0.000101815)
(-0.00270721 0 -0.000100789)
(-0.00266466 0 -9.98075e-05)
(-0.00262253 0 -9.88765e-05)
(-0.00258081 0 -9.79901e-05)
(-0.00253948 0 -9.71197e-05)
(-0.00249856 0 -9.62254e-05)
(-0.00245802 0 -9.53034e-05)
(-0.00241787 0 -9.43578e-05)
(-0.0023781 0 -9.33878e-05)
(-0.0023387 0 -9.23948e-05)
(-0.00229968 0 -9.14167e-05)
(-0.00226102 0 -9.04909e-05)
(-0.00222273 0 -8.96178e-05)
(-0.0021848 0 -8.87756e-05)
(-0.00214724 0 -8.79585e-05)
(-0.00211006 0 -8.717e-05)
(-0.00207325 0 -8.63839e-05)
(-0.0020368 0 -8.55562e-05)
(-0.00200072 0 -8.46627e-05)
(-0.001965 0 -8.37221e-05)
(-0.00192966 0 -8.27762e-05)
(-0.00189467 0 -8.18572e-05)
(-0.00186004 0 -8.09806e-05)
(-0.00182576 0 -8.01508e-05)
(-0.00179182 0 -7.93856e-05)
(-0.00175821 0 -7.86587e-05)
(-0.00172494 0 -7.79384e-05)
(-0.00169201 0 -7.71858e-05)
(-0.00165942 0 -7.6384e-05)
(-0.00162719 0 -7.5545e-05)
(-0.00159532 0 -7.46925e-05)
(-0.0015638 0 -7.38355e-05)
(-0.00153262 0 -7.29696e-05)
(-0.00150179 0 -7.21089e-05)
(-0.00147132 0 -7.12922e-05)
(-0.00144121 0 -7.0529e-05)
(-0.00141146 0 -6.9773e-05)
(-0.00138208 0 -6.89638e-05)
(-0.0013531 0 -6.80773e-05)
(-0.0013245 0 -6.71273e-05)
(-0.00129629 0 -6.6146e-05)
(-0.00126844 0 -6.51813e-05)
(-0.00124095 0 -6.42711e-05)
(-0.0012138 0 -6.34189e-05)
(-0.00118701 0 -6.26055e-05)
(-0.00116058 0 -6.18024e-05)
(-0.00113454 0 -6.09708e-05)
(-0.0011089 0 -6.0079e-05)
(-0.00108367 0 -5.9126e-05)
(-0.00105883 0 -5.81383e-05)
(-0.00103437 0 -5.71536e-05)
(-0.00101027 0 -5.62074e-05)
(-0.000986523 0 -5.53383e-05)
(-0.000963132 0 -5.45561e-05)
(-0.000940101 0 -5.38271e-05)
(-0.000917437 0 -5.30754e-05)
(-0.000895143 0 -5.22534e-05)
(-0.000873215 0 -5.13761e-05)
(-0.000851632 0 -5.05004e-05)
(-0.000830371 0 -4.96343e-05)
(-0.00080944 0 -4.87799e-05)
(-0.000788868 0 -4.79794e-05)
(-0.000768664 0 -4.72137e-05)
(-0.000748843 0 -4.6426e-05)
(-0.000729389 0 -4.5565e-05)
(-0.000710297 0 -4.46871e-05)
(-0.000691535 0 -4.3828e-05)
(-0.000673077 0 -4.30487e-05)
(-0.000654921 0 -4.23083e-05)
(-0.000637072 0 -4.16164e-05)
(-0.000619489 0 -4.09843e-05)
(-0.000602313 0 -4.02333e-05)
(-0.000585602 0 -3.9646e-05)
(-0.00056896 0 -3.87797e-05)
(-0.000552815 0 -3.76984e-05)
(-0.00053673 0 -3.69591e-05)
(-0.000520218 0 -3.67366e-05)
(-0.00050493 0 -3.57495e-05)
(-0.000491079 0 -3.72967e-05)
(-0.000476054 0 -3.57236e-05)
(-0.000464252 0 -3.15839e-05)
(-0.000449222 0 -2.98273e-05)
(-0.000444724 0 -2.91369e-05)
(-0.000429871 0 -2.79327e-05)
(-0.000418937 0 -2.48922e-05)
(-0.000404768 0 -2.45643e-05)
(-0.000392406 0 -2.67181e-05)
(-0.000380176 0 -2.70129e-05)
(-0.00036814 0 -2.72375e-05)
(-0.000356486 0 -2.7084e-05)
(-0.000344948 0 -2.65363e-05)
(-0.000333701 0 -2.59983e-05)
(-0.000322672 0 -2.56077e-05)
(-0.000311804 0 -2.51519e-05)
(-0.000300939 0 -2.51355e-05)
(-0.000290401 0 -2.44229e-05)
(-0.000280579 0 -2.40686e-05)
(-0.000270507 0 -2.34758e-05)
(-0.000261309 0 -2.21945e-05)
(-0.000251471 0 -2.18069e-05)
(-0.000243971 0 -2.11478e-05)
(-0.000234501 0 -2.06642e-05)
(-0.000225823 0 -1.99513e-05)
(-0.000216646 0 -1.97023e-05)
(-0.000207997 0 -2.00285e-05)
(-0.000199638 0 -1.91111e-05)
(-0.000191442 0 -1.89766e-05)
(-0.000183073 0 -1.79806e-05)
(-0.000175206 0 -1.76131e-05)
(-0.000168043 0 -1.67692e-05)
(-0.000161197 0 -1.64493e-05)
(-0.000155247 0 -1.73609e-05)
(-0.00014816 0 -1.54849e-05)
(-0.000142426 0 -1.43725e-05)
(-0.000135337 0 -1.346e-05)
(-0.000125287 0 -1.51799e-05)
(-0.000119268 0 -1.16631e-05)
(-0.000119068 0 -2.49117e-05)
(-0.000110195 0 -1.81629e-05)
(-0.000121617 0 -6.31655e-06)
(-0.000109796 0 5.81045e-07)
(-0.000190656 0 2.1246e-05)
(-0.00018777 0 2.16267e-05)
(-0.000201947 0 5.50019e-05)
(-0.000201232 0 1.84817e-05)
(-0.00019254 0 1.25553e-05)
(-0.000185783 0 1.7488e-06)
(-0.000182683 0 -2.19551e-06)
(-0.000181237 0 -4.57216e-06)
(-0.000180403 0 -5.78347e-06)
(-0.00017963 0 -6.00417e-06)
(-0.000178658 0 -5.96075e-06)
(-0.000177302 0 -5.92557e-06)
(-0.000175616 0 -5.74687e-06)
(-0.000173751 0 -5.47137e-06)
(-0.000171768 0 -5.4227e-06)
(-0.000169693 0 -5.6781e-06)
(-0.00016758 0 -5.95145e-06)
(-0.000165451 0 -6.00156e-06)
(-0.000163246 0 -5.9032e-06)