/*--------------------------------*- C++ -*----------------------------------*\
| =========                 |                                                 |
| \\      /  F ield         | OpenFOAM: The Open Source CFD Toolbox           |
|  \\    /   O peration     | Version:  v2006                                 |
|   \\  /    A nd           | Website:  www.openfoam.com                      |
|    \\/     M anipulation  |                                                 |
\*---------------------------------------------------------------------------*/
FoamFile
{
    version     2.0;
    format      ascii;
    class       volScalarField;
    location    "2.6";
    object      nut;
}
// * * * * * * * * * * * * * * * * * * * * * * * * * * * * * * * * * * * * * //

dimensions      [0 2 -1 0 0 0 0];


internalField   nonuniform List<scalar> 
33000
(
2.45329e-10
2.66632e-10
3.05902e-10
3.82279e-10
4.87021e-10
6.08934e-10
7.23015e-10
8.15752e-10
8.85695e-10
9.37003e-10
9.71095e-10
9.92278e-10
1.00635e-09
1.01609e-09
1.02449e-09
1.03291e-09
1.0411e-09
1.0501e-09
1.05845e-09
1.06364e-09
1.07187e-09
1.08781e-09
1.10599e-09
1.11861e-09
1.12684e-09
1.13791e-09
1.15891e-09
1.1839e-09
1.19868e-09
1.20989e-09
1.23413e-09
1.26191e-09
1.28304e-09
1.2987e-09
1.31628e-09
1.34899e-09
1.38134e-09
1.40072e-09
1.41994e-09
1.44355e-09
1.47425e-09
1.51648e-09
1.54822e-09
1.56092e-09
1.57861e-09
1.61312e-09
1.64651e-09
1.66713e-09
1.68756e-09
1.71886e-09
1.75351e-09
1.77902e-09
1.80126e-09
1.83713e-09
1.88337e-09
1.91851e-09
1.94735e-09
1.9905e-09
2.04557e-09
2.10517e-09
2.14894e-09
2.17724e-09
2.22648e-09
2.30224e-09
2.37907e-09
2.43596e-09
2.47539e-09
2.53669e-09
2.6201e-09
2.68844e-09
2.75345e-09
2.83909e-09
2.92445e-09
2.94714e-09
2.96225e-09
2.9469e-09
2.87652e-09
2.72169e-09
3.55454e-09
4.29409e-09
4.57043e-09
5.95294e-09
5.77001e-09
7.36846e-09
7.42998e-09
7.63467e-09
7.88009e-09
8.21169e-09
8.33707e-09
8.63074e-09
9.12129e-09
9.19524e-09
9.32578e-09
9.56102e-09
9.87251e-09
1.00483e-08
1.01073e-08
9.75819e-09
9.38712e-09
8.75511e-09
8.83577e-09
9.04589e-09
9.63871e-09
9.83837e-09
9.84833e-09
1.01153e-08
1.05077e-08
1.08116e-08
1.10721e-08
1.16771e-08
1.21184e-08
1.24911e-08
1.29378e-08
1.32291e-08
1.35606e-08
1.35025e-08
1.3212e-08
1.25732e-08
1.28547e-08
1.34008e-08
1.40304e-08
1.43954e-08
1.44377e-08
1.4819e-08
1.52237e-08
1.58509e-08
1.64459e-08
1.68975e-08
1.75119e-08
1.81833e-08
1.84576e-08
1.88264e-08
1.95211e-08
2.02221e-08
2.0821e-08
2.10693e-08
2.15524e-08
2.23436e-08
2.25071e-08
2.25268e-08
2.25442e-08
2.2535e-08
2.25441e-08
2.25487e-08
2.25512e-08
2.25488e-08
2.25519e-08
2.25636e-08
2.25746e-08
2.25794e-08
2.25935e-08
2.26022e-08
2.26131e-08
2.26345e-08
2.26592e-08
2.26874e-08
2.27174e-08
2.2749e-08
2.27814e-08
2.28264e-08
2.28807e-08
2.2935e-08
2.29874e-08
2.30496e-08
2.31258e-08
2.32024e-08
2.32723e-08
2.33452e-08
2.34374e-08
2.35402e-08
2.36434e-08
2.37346e-08
2.38372e-08
2.39604e-08
2.40759e-08
2.41821e-08
2.42801e-08
2.43778e-08
2.4478e-08
2.45699e-08
2.46594e-08
2.47405e-08
2.48123e-08
2.48867e-08
2.49559e-08
2.50181e-08
2.50659e-08
2.5112e-08
2.51569e-08
2.51949e-08
2.52214e-08
2.52406e-08
2.52581e-08
2.52659e-08
2.52677e-08
2.52604e-08
2.5246e-08
2.48264e-08
2.39032e-08
2.31379e-08
2.23849e-08
2.16304e-08
2.09298e-08
2.02957e-08
1.97059e-08
1.91701e-08
1.86977e-08
1.81786e-08
1.76903e-08
1.72642e-08
1.68944e-08
1.65067e-08
1.61216e-08
1.57911e-08
1.54648e-08
1.51916e-08
1.49141e-08
1.46336e-08
1.43937e-08
1.41487e-08
1.39232e-08
1.37461e-08
1.35624e-08
1.3372e-08
1.32e-08
1.30435e-08
1.28972e-08
1.27519e-08
1.26362e-08
1.25236e-08
1.24051e-08
1.22997e-08
1.22026e-08
1.21118e-08
1.20394e-08
1.19722e-08
1.18942e-08
1.18228e-08
1.17675e-08
1.17188e-08
1.16682e-08
1.16253e-08
1.1587e-08
1.15523e-08
1.15211e-08
1.14999e-08
1.14761e-08
1.14476e-08
1.14346e-08
1.14263e-08
1.14148e-08
1.14077e-08
1.14035e-08
1.14026e-08
1.14027e-08
1.14019e-08
1.14042e-08
1.14184e-08
1.14278e-08
1.14327e-08
1.1443e-08
1.14602e-08
1.14785e-08
1.14919e-08
1.1509e-08
1.15274e-08
1.15461e-08
1.15669e-08
1.15907e-08
1.16171e-08
1.16428e-08
1.1667e-08
1.16923e-08
1.17187e-08
1.17459e-08
1.17729e-08
1.18025e-08
1.18331e-08
1.18642e-08
1.18956e-08
1.19268e-08
1.19578e-08
1.199e-08
1.20236e-08
1.20578e-08
1.20935e-08
1.21284e-08
1.21627e-08
1.21975e-08
1.22334e-08
1.22698e-08
1.2307e-08
1.23453e-08
1.2383e-08
1.24205e-08
1.24586e-08
1.24975e-08
1.2537e-08
1.25765e-08
1.26164e-08
1.26567e-08
1.26974e-08
1.27386e-08
1.27801e-08
1.2822e-08
1.2865e-08
1.29099e-08
1.29562e-08
1.30039e-08
1.30535e-08
1.31051e-08
1.31583e-08
1.32131e-08
1.32697e-08
1.33281e-08
1.33884e-08
1.34506e-08
1.35146e-08
1.35804e-08
1.36483e-08
1.37183e-08
1.37904e-08
1.38645e-08
1.39407e-08
1.3932e-08
1.38677e-08
1.38046e-08
1.37427e-08
1.36821e-08
1.36227e-08
1.35645e-08
1.35073e-08
1.34511e-08
1.33959e-08
1.33416e-08
1.32883e-08
1.3236e-08
1.31845e-08
1.31338e-08
1.3084e-08
1.3035e-08
1.29868e-08
1.29396e-08
1.28931e-08
1.28474e-08
1.28023e-08
1.2758e-08
1.27144e-08
1.26714e-08
1.26291e-08
1.25874e-08
1.25464e-08
1.25059e-08
1.24659e-08
1.24266e-08
1.23879e-08
1.23498e-08
1.23122e-08
1.22753e-08
1.22388e-08
1.22028e-08
1.21673e-08
1.21322e-08
1.20977e-08
1.20637e-08
1.20302e-08
1.19971e-08
1.19646e-08
1.19325e-08
1.19008e-08
1.18695e-08
1.18387e-08
1.18084e-08
1.17784e-08
1.17488e-08
1.17196e-08
1.16909e-08
1.16625e-08
1.16347e-08
1.16072e-08
1.15801e-08
1.15534e-08
1.15271e-08
1.15011e-08
1.14756e-08
1.14505e-08
1.14258e-08
1.14015e-08
1.13776e-08
1.13541e-08
1.13309e-08
1.13081e-08
1.12857e-08
1.12637e-08
1.1242e-08
1.12207e-08
1.11998e-08
1.11792e-08
1.1159e-08
1.11392e-08
1.11197e-08
1.11005e-08
1.10816e-08
1.10631e-08
1.10449e-08
1.10271e-08
1.10097e-08
1.09925e-08
1.09757e-08
1.09591e-08
1.09429e-08
1.09271e-08
1.09115e-08
1.08963e-08
1.08813e-08
1.08667e-08
1.08523e-08
1.08382e-08
1.08243e-08
1.08108e-08
1.07976e-08
1.07845e-08
1.07719e-08
1.07594e-08
1.07466e-08
1.07347e-08
1.07237e-08
1.07115e-08
1.07021e-08
1.06907e-08
1.06867e-08
1.06758e-08
1.0668e-08
1.06586e-08
1.06498e-08
1.06407e-08
1.06319e-08
1.06233e-08
1.06148e-08
1.06065e-08
1.05984e-08
1.05904e-08
1.05824e-08
1.05748e-08
1.05676e-08
1.056e-08
1.05535e-08
1.05464e-08
1.05414e-08
1.05348e-08
1.05291e-08
1.05232e-08
1.05176e-08
1.0512e-08
1.05066e-08
1.05016e-08
1.04969e-08
1.04918e-08
1.04873e-08
1.04836e-08
1.04785e-08
1.04752e-08
1.04709e-08
1.0463e-08
1.04601e-08
1.04581e-08
1.045e-08
1.04635e-08
1.04556e-08
1.05162e-08
1.05068e-08
1.05201e-08
1.05254e-08
1.05281e-08
1.05292e-08
1.05291e-08
1.05282e-08
1.05268e-08
1.0525e-08
1.0523e-08
1.05208e-08
1.05187e-08
1.05165e-08
1.05144e-08
1.05122e-08
1.051e-08
1.05077e-08
1.05054e-08
1.05032e-08
1.05009e-08
1.04986e-08
1.04963e-08
1.04939e-08
1.04916e-08
1.04893e-08
1.0487e-08
1.04847e-08
1.04824e-08
1.04802e-08
1.04779e-08
1.04757e-08
1.04735e-08
1.04712e-08
1.0469e-08
1.04669e-08
1.04648e-08
1.04628e-08
1.0461e-08
1.04593e-08
1.04577e-08
1.04562e-08
1.04548e-08
1.04534e-08
1.04519e-08
1.04502e-08
1.04485e-08
1.04468e-08
1.04452e-08
1.04439e-08
1.0443e-08
1.04424e-08
1.04422e-08
1.04421e-08
1.04416e-08
1.04407e-08
1.04394e-08
1.04383e-08
1.04379e-08
1.04382e-08
1.0438e-08
1.04366e-08
1.04339e-08
1.0431e-08
1.04292e-08
1.04285e-08
1.04271e-08
1.04246e-08
1.04217e-08
1.04205e-08
1.04211e-08
1.04208e-08
1.04198e-08
1.04204e-08
1.0423e-08
1.04239e-08
1.04229e-08
1.04217e-08
1.04191e-08
1.04251e-08
1.0413e-08
3.2619e-09
6.46098e-09
9.18219e-09
2.08732e-08
1.20156e-08
1.35531e-08
3.14255e-08
3.33545e-08
2.37252e-08
1.84515e-08
1.91356e-08
1.86925e-08
1.71537e-08
1.58738e-08
1.50608e-08
1.44956e-08
1.36072e-08
1.28701e-08
1.2682e-08
1.22408e-08
1.13409e-08
1.08533e-08
1.08243e-08
1.08839e-08
1.04961e-08
9.62393e-09
9.38512e-09
9.47224e-09
9.98869e-09
9.18145e-09
8.02692e-09
7.5984e-09
8.03681e-09
9.07045e-09
9.33992e-09
8.4169e-09
7.53501e-09
7.57768e-09
8.18323e-09
8.48538e-09
7.65817e-09
7.23346e-09
7.37733e-09
7.96088e-09
7.97216e-09
7.49769e-09
6.99551e-09
6.9252e-09
7.1332e-09
7.23566e-09
7.24925e-09
7.13909e-09
7.09582e-09
6.98805e-09
7.10234e-09
7.51057e-09
7.57347e-09
6.91418e-09
6.51247e-09
6.87331e-09
7.3069e-09
7.01658e-09
6.46583e-09
6.3385e-09
6.85217e-09
7.03667e-09
6.95274e-09
7.08372e-09
6.88948e-09
6.47285e-09
6.45642e-09
6.7004e-09
6.578e-09
6.27632e-09
6.04517e-09
5.6854e-09
4.67233e-09
5.06857e-09
4.35909e-09
3.83856e-09
1.75322e-09
1.84007e-09
3.80744e-09
4.13764e-09
1.44217e-08
1.05169e-08
1.96826e-08
3.67186e-08
4.91862e-08
2.54382e-08
2.50557e-08
3.10212e-08
3.0894e-08
3.39045e-08
3.55531e-08
3.29054e-08
3.17783e-08
3.30525e-08
3.20932e-08
4.62069e-08
6.34824e-08
6.70676e-08
6.41206e-08
5.58003e-08
5.57516e-08
4.46808e-08
4.08813e-08
4.29872e-08
4.04053e-08
4.2252e-08
5.46824e-08
6.03158e-08
6.1311e-08
5.97724e-08
5.6937e-08
6.1108e-08
5.98257e-08
8.21151e-08
9.36343e-08
9.31676e-08
1.41379e-07
1.38651e-07
1.083e-07
9.08134e-08
9.14567e-08
7.47688e-08
8.32746e-08
1.08878e-07
1.16412e-07
1.17449e-07
1.27465e-07
1.22961e-07
1.25616e-07
1.36967e-07
1.52146e-07
1.50466e-07
1.38001e-07
1.55267e-07
1.66476e-07
1.60748e-07
1.42776e-07
1.63851e-07
1.75802e-07
1.48446e-07
1.4665e-07
1.68822e-07
1.77154e-07
1.49593e-07
1.36483e-07
1.58726e-07
1.5776e-07
1.45616e-07
1.5918e-07
1.55664e-07
1.36986e-07
1.35859e-07
1.4797e-07
1.53951e-07
1.38426e-07
1.27079e-07
1.25498e-07
1.34814e-07
1.39408e-07
1.23515e-07
1.13543e-07
1.16555e-07
1.23338e-07
1.20177e-07
1.08988e-07
1.04393e-07
1.12855e-07
1.16023e-07
1.03539e-07
9.95752e-08
1.06842e-07
1.05782e-07
1.007e-07
1.01658e-07
1.02945e-07
1.01903e-07
9.96381e-08
9.88864e-08
9.74151e-08
9.68264e-08
9.86141e-08
1.00853e-07
1.01635e-07
9.95044e-08
9.86086e-08
9.87508e-08
9.90011e-08
9.92209e-08
1.00294e-07
1.02915e-07
1.05203e-07
1.0432e-07
1.02333e-07
1.04535e-07
1.09276e-07
1.11629e-07
1.12092e-07
1.11592e-07
1.12126e-07
1.19138e-07
1.2274e-07
1.23943e-07
1.23022e-07
1.25191e-07
1.33888e-07
1.38718e-07
1.39394e-07
1.40878e-07
1.51584e-07
1.57475e-07
1.62295e-07
1.71034e-07
1.75544e-07
1.84086e-07
1.90677e-07
1.98013e-07
2.17843e-07
2.29621e-07
2.44661e-07
2.57284e-07
2.6737e-07
2.97716e-07
3.22933e-07
3.51548e-07
3.91672e-07
4.32915e-07
4.67761e-07
5.15476e-07
6.22008e-07
7.30099e-07
9.12282e-07
1.09116e-06
1.09453e-06
1.09831e-06
1.10156e-06
1.10402e-06
1.10673e-06
1.10847e-06
1.10983e-06
1.11175e-06
1.00641e-06
9.33344e-07
9.32592e-07
7.85027e-07
6.7204e-07
6.15001e-07
5.85697e-07
5.47003e-07
5.21844e-07
5.04248e-07
4.74694e-07
4.50651e-07
4.37379e-07
4.38375e-07
4.3245e-07
4.03587e-07
3.87151e-07
3.81137e-07
3.80522e-07
3.75867e-07
3.68299e-07
3.62971e-07
3.58282e-07
3.50799e-07
3.46467e-07
3.44471e-07
3.42591e-07
3.41211e-07
3.39866e-07
3.38049e-07
3.39258e-07
3.36909e-07
3.32066e-07
3.29938e-07
3.29434e-07
3.28462e-07
3.29041e-07
3.32375e-07
3.29926e-07
3.27794e-07
3.27856e-07
3.28155e-07
3.28401e-07
3.28682e-07
3.29077e-07
3.29399e-07
3.2959e-07
3.29959e-07
3.30711e-07
3.31735e-07
3.32771e-07
3.34005e-07
3.35549e-07
3.37227e-07
3.38589e-07
3.40197e-07
3.41863e-07
3.43438e-07
3.4518e-07
3.46956e-07
3.4867e-07
3.50352e-07
3.52048e-07
3.53812e-07
3.55699e-07
3.57563e-07
3.59382e-07
3.61221e-07
3.63093e-07
3.65042e-07
3.67035e-07
3.6899e-07
3.70931e-07
3.72894e-07
3.74853e-07
3.76769e-07
3.78652e-07
3.80591e-07
3.82615e-07
3.8462e-07
3.8652e-07
3.88297e-07
3.90001e-07
3.91669e-07
3.93249e-07
3.94647e-07
3.9581e-07
3.96814e-07
3.97787e-07
3.98724e-07
3.99496e-07
4.00108e-07
4.00697e-07
4.01396e-07
4.02184e-07
4.02891e-07
4.03482e-07
4.04015e-07
4.04563e-07
4.05107e-07
4.056e-07
4.06078e-07
4.06579e-07
4.07093e-07
4.07598e-07
4.08152e-07
4.08806e-07
4.09526e-07
4.10239e-07
4.11005e-07
4.11869e-07
4.12791e-07
4.1376e-07
4.1483e-07
4.16106e-07
4.17591e-07
4.19122e-07
4.20596e-07
4.2216e-07
4.23906e-07
4.25812e-07
4.27834e-07
4.29915e-07
4.32022e-07
4.34193e-07
4.36433e-07
4.38751e-07
4.41194e-07
4.43839e-07
4.46731e-07
4.4983e-07
4.53012e-07
4.56232e-07
4.59577e-07
4.63157e-07
4.66972e-07
4.70953e-07
4.75178e-07
4.79705e-07
4.84514e-07
4.89488e-07
4.94419e-07
4.99338e-07
5.04273e-07
5.09352e-07
5.14791e-07
5.20669e-07
5.26982e-07
5.3363e-07
5.40395e-07
5.47129e-07
5.5386e-07
5.60654e-07
5.67614e-07
5.74884e-07
5.82483e-07
5.90445e-07
5.98638e-07
6.06901e-07
6.15041e-07
6.23388e-07
6.32153e-07
6.42226e-07
6.52403e-07
6.63755e-07
6.75632e-07
6.86563e-07
6.97597e-07
7.0544e-07
7.16757e-07
7.23595e-07
7.37019e-07
7.60162e-07
7.72528e-07
7.73944e-07
7.8948e-07
7.47035e-07
7.69734e-07
8.96682e-07
9.20114e-07
1.00346e-06
1.04068e-06
1.09055e-06
1.09084e-06
1.0583e-06
9.9707e-07
9.28054e-07
1.02499e-06
1.03644e-06
1.07298e-06
1.08656e-06
1.092e-06
1.09185e-06
1.09201e-06
1.09201e-06
1.09245e-06
1.09213e-06
1.09139e-06
1.09146e-06
1.09154e-06
1.09201e-06
1.09182e-06
1.09202e-06
1.09264e-06
1.09296e-06
1.09319e-06
1.09281e-06
1.09315e-06
1.09261e-06
1.09233e-06
1.09188e-06
1.0925e-06
1.0929e-06
1.09215e-06
1.09335e-06
1.00891e-06
1.09147e-06
1.09136e-06
1.08689e-06
6.19152e-07
6.56706e-07
2.53529e-07
2.33241e-07
5.78466e-07
4.63501e-07
4.9077e-07
6.57868e-07
9.94252e-07
1.06313e-06
1.06936e-06
1.07341e-06
1.07506e-06
1.07554e-06
1.07619e-06
1.077e-06
1.07773e-06
1.07919e-06
1.08162e-06
1.08395e-06
1.08524e-06
1.08561e-06
1.08598e-06
1.08697e-06
1.08833e-06
1.08953e-06
1.09023e-06
1.09035e-06
1.08997e-06
1.08931e-06
1.0886e-06
1.08806e-06
1.0878e-06
1.08786e-06
1.08827e-06
1.0891e-06
1.09033e-06
1.09194e-06
1.09351e-06
1.09386e-06
1.09391e-06
1.09393e-06
1.09393e-06
1.0939e-06
1.09387e-06
1.09385e-06
1.09384e-06
1.09385e-06
1.09386e-06
1.09385e-06
1.09381e-06
1.09359e-06
1.09321e-06
1.09329e-06
1.09372e-06
1.09389e-06
1.09393e-06
1.09393e-06
1.09392e-06
1.09388e-06
1.09383e-06
1.09362e-06
1.09289e-06
1.09389e-06
1.09414e-06
1.0942e-06
1.09398e-06
1.08869e-06
1.08341e-06
1.08594e-06
1.0927e-06
1.09359e-06
1.0884e-06
1.08213e-06
1.08604e-06
1.09405e-06
1.09429e-06
1.09304e-06
1.09265e-06
1.09439e-06
1.09444e-06
1.09384e-06
1.08855e-06
1.09116e-06
1.08401e-06
1.08373e-06
1.06941e-06
3.23127e-09
6.36866e-09
8.93989e-09
1.91603e-08
1.04131e-08
1.05457e-08
2.01363e-08
2.12786e-08
1.60753e-08
1.34034e-08
1.40368e-08
1.35825e-08
1.23783e-08
1.15074e-08
1.11155e-08
1.06802e-08
1.01581e-08
9.63947e-09
8.81205e-09
8.41855e-09
8.69834e-09
9.21379e-09
8.58138e-09
7.6786e-09
7.3099e-09
7.38008e-09
8.10726e-09
7.77695e-09
6.91256e-09
6.95695e-09
6.85852e-09
6.08709e-09
5.85288e-09
6.24056e-09
7.10221e-09
7.26509e-09
6.23667e-09
5.70361e-09
6.00752e-09
6.47674e-09
6.72317e-09
6.50549e-09
5.70858e-09
5.66061e-09
6.02522e-09
6.17185e-09
5.84914e-09
5.5088e-09
5.6255e-09
5.81139e-09
5.74115e-09
5.61367e-09
5.83332e-09
6.01585e-09
6.03379e-09
6.07492e-09
6.12751e-09
5.84288e-09
6.08425e-09
6.44584e-09
6.0607e-09
5.50154e-09
5.59593e-09
6.09762e-09
6.41441e-09
5.83034e-09
5.57044e-09
6.26051e-09
6.80598e-09
6.39118e-09
6.15952e-09
6.20799e-09
6.1938e-09
6.44915e-09
6.95262e-09
6.9203e-09
7.55078e-09
1.44175e-08
2.03504e-08
6.01102e-09
4.72073e-09
3.46645e-09
3.61241e-09
1.75225e-09
1.85386e-09
3.25724e-09
3.80098e-09
5.41477e-09
1.99296e-08
1.44745e-08
3.82482e-08
6.8856e-08
2.42412e-08
2.8893e-08
3.48611e-08
3.08695e-08
2.76224e-08
2.75291e-08
2.80407e-08
3.07259e-08
3.59438e-08
3.95916e-08
5.36833e-08
5.24694e-08
5.12946e-08
5.93995e-08
4.32467e-08
5.3825e-08
5.61108e-08
4.67682e-08
4.22571e-08
4.53775e-08
5.22521e-08
6.28655e-08
5.3056e-08
5.22961e-08
5.42332e-08
5.93611e-08
6.1617e-08
6.66845e-08
1.37663e-07
1.34832e-07
8.0199e-08
8.86354e-08
1.44645e-07
1.22457e-07
9.34137e-08
1.05004e-07
9.06124e-08
9.06923e-08
1.1337e-07
1.35757e-07
1.61849e-07
1.48503e-07
1.34023e-07
1.25303e-07
1.41714e-07
1.64117e-07
1.56252e-07
1.43671e-07
1.50921e-07
1.8011e-07
1.75702e-07
1.4626e-07
1.62169e-07
1.76514e-07
1.5956e-07
1.39131e-07
1.49439e-07
1.69889e-07
1.66267e-07
1.64745e-07
1.41414e-07
1.25233e-07
1.3937e-07
1.55344e-07
1.54937e-07
1.39304e-07
1.26691e-07
1.33652e-07
1.33378e-07
1.24057e-07
1.22513e-07
1.19127e-07
1.19468e-07
1.1829e-07
1.13781e-07
1.13839e-07
1.09965e-07
1.08992e-07
1.08725e-07
1.05735e-07
1.02882e-07
1.02559e-07
1.06332e-07
1.01576e-07
9.70852e-08
1.00599e-07
1.0169e-07
1.00095e-07
9.68349e-08
9.61445e-08
9.60215e-08
9.68957e-08
9.76652e-08
9.78468e-08
9.75392e-08
9.69102e-08
9.64879e-08
9.71495e-08
9.66083e-08
9.81323e-08
9.80242e-08
1.00081e-07
1.04931e-07
1.04122e-07
1.00996e-07
1.02508e-07
1.06068e-07
1.08324e-07
1.10445e-07
1.10332e-07
1.1207e-07
1.17197e-07
1.19613e-07
1.18195e-07
1.20675e-07
1.28761e-07
1.33147e-07
1.35006e-07
1.35269e-07
1.41681e-07
1.49009e-07
1.54471e-07
1.58728e-07
1.66435e-07
1.75971e-07
1.81336e-07
1.88198e-07
2.01963e-07
2.12547e-07
2.13589e-07
2.38593e-07
2.61604e-07
2.75427e-07
2.94866e-07
3.10414e-07
3.3823e-07
3.63875e-07
4.19788e-07
4.68518e-07
5.07715e-07
5.7082e-07
6.5272e-07
7.89314e-07
9.99774e-07
1.20518e-06
1.2302e-06
1.24926e-06
1.39964e-06
1.43639e-06
1.58782e-06
1.4264e-06
1.14876e-06
9.43766e-07
9.4184e-07
8.45893e-07
6.85772e-07
6.31164e-07
6.10989e-07
5.85744e-07
5.37772e-07
5.04615e-07
4.82158e-07
4.655e-07
4.4411e-07
4.43652e-07
4.47833e-07
4.1735e-07
3.94454e-07
3.85746e-07
3.83775e-07
3.74946e-07
3.6754e-07
3.62936e-07
3.59237e-07
3.57299e-07
3.51846e-07
3.49961e-07
3.49275e-07
3.45855e-07
3.41503e-07
3.31777e-07
3.29144e-07
3.35862e-07
3.37178e-07
3.32891e-07
3.29719e-07
3.2898e-07
3.27607e-07
3.27226e-07
3.29028e-07
3.28084e-07
3.27012e-07
3.27735e-07
3.28208e-07
3.27486e-07
3.27135e-07
3.28483e-07
3.30015e-07
3.30686e-07
3.31308e-07
3.31443e-07
3.31686e-07
3.32421e-07
3.3362e-07
3.35452e-07
3.36606e-07
3.37617e-07
3.39102e-07
3.40604e-07
3.42142e-07
3.43851e-07
3.45522e-07
3.47381e-07
3.49647e-07
3.51606e-07
3.53224e-07
3.55337e-07
3.57729e-07
3.5973e-07
3.61589e-07
3.63592e-07
3.6562e-07
3.67615e-07
3.69626e-07
3.71601e-07
3.73539e-07
3.75583e-07
3.77666e-07
3.79742e-07
3.818e-07
3.83795e-07
3.85824e-07
3.8779e-07
3.89554e-07
3.91054e-07
3.92349e-07
3.93615e-07
3.9487e-07
3.96027e-07
3.97053e-07
3.98062e-07
3.99213e-07
4.00488e-07
4.01569e-07
4.0237e-07
4.0302e-07
4.03628e-07
4.04184e-07
4.04558e-07
4.04786e-07
4.05074e-07
4.05455e-07
4.05855e-07
4.06318e-07
4.06963e-07
4.07708e-07
4.08428e-07
4.09161e-07
4.09919e-07
4.1059e-07
4.11098e-07
4.11611e-07
4.12184e-07
4.12822e-07
4.1358e-07
4.1456e-07
4.15864e-07
4.17499e-07
4.19226e-07
4.20884e-07
4.22499e-07
4.24091e-07
4.25697e-07
4.27357e-07
4.29152e-07
4.31135e-07
4.33378e-07
4.35912e-07
4.38595e-07
4.41364e-07
4.44212e-07
4.47148e-07
4.50161e-07
4.53165e-07
4.5614e-07
4.59267e-07
4.62858e-07
4.67024e-07
4.71521e-07
4.76147e-07
4.80797e-07
4.8538e-07
4.89864e-07
4.94351e-07
4.99042e-07
5.04057e-07
5.09451e-07
5.15329e-07
5.21687e-07
5.28284e-07
5.34785e-07
5.40971e-07
5.46957e-07
5.53062e-07
5.59549e-07
5.66793e-07
5.74802e-07
5.83285e-07
5.91678e-07
5.99658e-07
6.07009e-07
6.14698e-07
6.22647e-07
6.32437e-07
6.44174e-07
6.55494e-07
6.65493e-07
6.75182e-07
6.8489e-07
6.91857e-07
7.04302e-07
7.27035e-07
7.39587e-07
7.38547e-07
7.53873e-07
7.13223e-07
7.36802e-07
8.71598e-07
8.9701e-07
9.59474e-07
9.84855e-07
1.51041e-06
1.50091e-06
1.02024e-06
1.02504e-06
9.40282e-07
9.57305e-07
8.75109e-07
8.99433e-07
9.90005e-07
1.0119e-06
1.04683e-06
1.0358e-06
1.06213e-06
1.12331e-06
1.16816e-06
1.19384e-06
1.2161e-06
1.23494e-06
1.38307e-06
1.39534e-06
1.2625e-06
1.28715e-06
1.27619e-06
1.30726e-06
1.23758e-06
1.30025e-06
1.26141e-06
1.36543e-06
1.5066e-06
1.63899e-06
1.44343e-06
1.64798e-06
1.7746e-06
9.68499e-07
1.18255e-06
1.15293e-06
1.65446e-06
5.71909e-07
5.62948e-07
2.16037e-07
2.2284e-07
6.60907e-07
6.60177e-07
6.01864e-07
5.83739e-07
6.20941e-07
8.95706e-07
1.59398e-06
2.14376e-06
2.34709e-06
2.93441e-06
3.67939e-06
4.23694e-06
4.38494e-06
4.47899e-06
4.46634e-06
4.26021e-06
4.07175e-06
4.018e-06
3.99826e-06
3.88087e-06
3.66302e-06
3.42965e-06
3.24419e-06
3.12542e-06
3.06764e-06
3.0585e-06
3.08112e-06
3.11186e-06
3.12507e-06
3.10333e-06
3.04395e-06
2.96012e-06
2.87471e-06
2.80345e-06
2.75939e-06
2.75192e-06
2.77863e-06
2.82572e-06
2.87136e-06
2.89501e-06
2.88201e-06
2.83317e-06
2.76815e-06
2.71343e-06
2.68912e-06
2.70359e-06
2.75236e-06
2.81616e-06
2.86725e-06
2.88721e-06
2.88394e-06
2.88846e-06
2.9281e-06
2.99836e-06
3.05691e-06
3.05591e-06
2.99787e-06
2.93733e-06
2.91659e-06
2.95531e-06
3.05754e-06
3.19256e-06
3.37374e-06
3.67239e-06
3.95518e-06
3.90775e-06
3.54213e-06
3.21017e-06
3.32558e-06
4.00057e-06
4.43731e-06
3.85668e-06
3.13329e-06
3.28895e-06
4.55004e-06
5.34906e-06
4.10146e-06
3.72207e-06
5.24304e-06
6.32829e-06
4.27774e-06
3.78769e-06
4.6846e-06
4.73291e-06
1.52034e-06
3.56454e-06
3.19135e-09
6.31682e-09
8.82671e-09
1.96246e-08
1.07213e-08
1.06685e-08
1.87689e-08
1.89404e-08
1.44805e-08
1.19619e-08
1.2281e-08
1.19005e-08
1.1038e-08
1.05105e-08
1.0238e-08
9.82296e-09
9.46329e-09
9.07302e-09
8.36594e-09
8.06564e-09
8.56602e-09
9.07777e-09
8.24286e-09
7.28991e-09
7.04533e-09
7.59484e-09
8.14993e-09
7.37705e-09
6.48899e-09
6.66323e-09
7.47283e-09
7.3174e-09
6.32014e-09
5.72927e-09
5.89568e-09
6.63275e-09
6.71796e-09
6.12947e-09
5.75016e-09
5.65467e-09
6.38048e-09
6.63914e-09
5.77145e-09
5.30352e-09
5.39082e-09
5.80048e-09
5.92932e-09
5.77526e-09
5.61605e-09
5.44897e-09
5.40152e-09
5.58041e-09
5.8904e-09
6.04555e-09
5.94071e-09
5.74906e-09
5.74312e-09
6.03268e-09
6.56937e-09
6.43291e-09
5.98607e-09
5.62677e-09
5.8541e-09
6.37461e-09
6.39625e-09
5.93601e-09
5.62956e-09
6.01397e-09
6.79436e-09
7.01805e-09
6.60357e-09
6.17942e-09
6.10235e-09
6.57076e-09
7.48117e-09
8.11536e-09
9.48269e-09
1.11836e-08
1.00597e-08
1.04223e-08
2.18822e-08
2.66187e-08
9.15015e-09
6.2133e-09
4.02801e-09
3.47896e-09
3.16252e-09
1.98849e-09
2.08571e-09
4.23198e-09
4.36142e-09
1.92836e-08
1.46127e-08
3.53743e-08
5.79267e-08
2.42684e-08
2.53185e-08
3.01611e-08
2.98378e-08
2.95313e-08
2.93889e-08
2.65512e-08
3.07289e-08
3.45105e-08
3.95571e-08
4.96541e-08
4.44701e-08
3.92097e-08
4.95451e-08
5.58146e-08
5.47247e-08
5.27098e-08
5.19997e-08
5.18852e-08
4.22549e-08
4.67741e-08
6.66052e-08
7.45236e-08
6.53355e-08
5.05239e-08
5.57815e-08
7.14388e-08
8.76268e-08
1.34156e-07
1.20385e-07
7.05012e-08
8.27342e-08
1.33883e-07
1.37833e-07
1.03213e-07
1.04988e-07
9.61952e-08
1.1178e-07
1.46281e-07
1.35039e-07
1.60393e-07
2.07652e-07
1.68074e-07
1.33813e-07
1.34316e-07
1.72827e-07
1.79498e-07
1.76661e-07
1.66891e-07
1.73765e-07
1.57139e-07
1.46033e-07
1.63546e-07
1.91232e-07
1.6635e-07
1.55346e-07
1.67707e-07
1.41559e-07
1.25626e-07
1.44689e-07
1.63078e-07
1.53258e-07
1.32432e-07
1.2396e-07
1.37616e-07
1.45167e-07
1.21184e-07
1.10718e-07
1.16146e-07
1.29257e-07
1.23894e-07
1.07633e-07
1.06226e-07
1.12819e-07
1.17599e-07
1.04688e-07
9.9019e-08
1.07414e-07
1.07075e-07
1.00138e-07
9.85136e-08
1.01159e-07
1.01347e-07
9.67609e-08
9.6058e-08
9.6611e-08
9.65376e-08
9.58999e-08
9.70376e-08
9.80162e-08
9.62238e-08
9.33559e-08
9.43648e-08
9.6132e-08
9.69833e-08
9.64106e-08
9.75288e-08
9.72954e-08
9.78396e-08
1.01556e-07
1.03817e-07
1.02781e-07
1.02841e-07
1.026e-07
1.05279e-07
1.09455e-07
1.10515e-07
1.12962e-07
1.12554e-07
1.14216e-07
1.16367e-07
1.23306e-07
1.32739e-07
1.29932e-07
1.29332e-07
1.35347e-07
1.43841e-07
1.44867e-07
1.49631e-07
1.55662e-07
1.64156e-07
1.71956e-07
1.77508e-07
1.88708e-07
2.01678e-07
2.07016e-07
2.09701e-07
2.27376e-07
2.53573e-07
2.77006e-07
2.94042e-07
3.03464e-07
3.22069e-07
3.47104e-07
3.89033e-07
4.40955e-07
4.91107e-07
5.13111e-07
5.72566e-07
7.18054e-07
8.4751e-07
9.66669e-07
1.06603e-06
9.83857e-07
9.70266e-07
1.1712e-06
1.37991e-06
1.11667e-06
9.27193e-07
9.05352e-07
8.89387e-07
6.95555e-07
5.87745e-07
6.01449e-07
6.22849e-07
5.67869e-07
5.29946e-07
4.98868e-07
4.63772e-07
4.5774e-07
4.47613e-07
4.42301e-07
4.23693e-07
3.92893e-07
3.92262e-07
3.89611e-07
3.83607e-07
3.74342e-07
3.63165e-07
3.56971e-07
3.55445e-07
3.55271e-07
3.53058e-07
3.52241e-07
3.51168e-07
3.46934e-07
3.40149e-07
3.2765e-07
3.2442e-07
3.30675e-07
3.33166e-07
3.33303e-07
3.32246e-07
3.30502e-07
3.29054e-07
3.26659e-07
3.23941e-07
3.25951e-07
3.27458e-07
3.27707e-07
3.27843e-07
3.27244e-07
3.2689e-07
3.28596e-07
3.30382e-07
3.31325e-07
3.31798e-07
3.31723e-07
3.32079e-07
3.32835e-07
3.33808e-07
3.35076e-07
3.35884e-07
3.36983e-07
3.38362e-07
3.39725e-07
3.41322e-07
3.43074e-07
3.44848e-07
3.46824e-07
3.49153e-07
3.51293e-07
3.53182e-07
3.55458e-07
3.5794e-07
3.6007e-07
3.62077e-07
3.64218e-07
3.66328e-07
3.68322e-07
3.70331e-07
3.72363e-07
3.74436e-07
3.76641e-07
3.78873e-07
3.81079e-07
3.83177e-07
3.8509e-07
3.86995e-07
3.88899e-07
3.90633e-07
3.92036e-07
3.93172e-07
3.94288e-07
3.95531e-07
3.96757e-07
3.97802e-07
3.98772e-07
3.9992e-07
4.01395e-07
4.02836e-07
4.03813e-07
4.0428e-07
4.04586e-07
4.04933e-07
4.0516e-07
4.05261e-07
4.05393e-07
4.0567e-07
4.06044e-07
4.06514e-07
4.07165e-07
4.07933e-07
4.08704e-07
4.09448e-07
4.1014e-07
4.10726e-07
4.11209e-07
4.11661e-07
4.12147e-07
4.12706e-07
4.13388e-07
4.14257e-07
4.15399e-07
4.16893e-07
4.18537e-07
4.20237e-07
4.21846e-07
4.23304e-07
4.24708e-07
4.26199e-07
4.27924e-07
4.29968e-07
4.32303e-07
4.34919e-07
4.37743e-07
4.40664e-07
4.43545e-07
4.46363e-07
4.4921e-07
4.52178e-07
4.55249e-07
4.58532e-07
4.62286e-07
4.66539e-07
4.70994e-07
4.75394e-07
4.7976e-07
4.84098e-07
4.88445e-07
4.93115e-07
4.98246e-07
5.03815e-07
5.09669e-07
5.15722e-07
5.21912e-07
5.28086e-07
5.34047e-07
5.3975e-07
5.45593e-07
5.51855e-07
5.58734e-07
5.66285e-07
5.74381e-07
5.82355e-07
5.90375e-07
5.97637e-07
6.05447e-07
6.14052e-07
6.22711e-07
6.29499e-07
6.41176e-07
6.47273e-07
6.61893e-07
6.8198e-07
6.97467e-07
7.09927e-07
7.02967e-07
7.17338e-07
6.78861e-07
7.03312e-07
8.48294e-07
8.73915e-07
9.17124e-07
9.39233e-07
1.49352e-06
1.49291e-06
9.74548e-07
9.86984e-07
9.1513e-07
9.15375e-07
8.18714e-07
8.2988e-07
9.06373e-07
9.14945e-07
9.52469e-07
9.57974e-07
9.87769e-07
1.06574e-06
1.09993e-06
1.0965e-06
1.16071e-06
1.19261e-06
1.34785e-06
1.3672e-06
1.2127e-06
1.23026e-06
1.21732e-06
1.24747e-06
1.17149e-06
1.22546e-06
1.18962e-06
1.26413e-06
1.44812e-06
1.52354e-06
1.22418e-06
1.37124e-06
7.66532e-07
9.93159e-07
1.92121e-06
1.11869e-06
1.78036e-06
5.38051e-07
5.41686e-07
1.9952e-07
1.9602e-07
5.67934e-07
4.88748e-07
4.98455e-07
5.53892e-07
6.17631e-07
5.94594e-07
8.26568e-07
9.53404e-07
1.18865e-06
1.40926e-06
1.5924e-06
1.91497e-06
2.3179e-06
2.68961e-06
2.92086e-06
3.14049e-06
3.36321e-06
3.49225e-06
3.52941e-06
3.57345e-06
3.63989e-06
3.65245e-06
3.56106e-06
3.40581e-06
3.25673e-06
3.15407e-06
3.1054e-06
3.10324e-06
3.13169e-06
3.1661e-06
3.1794e-06
3.15087e-06
3.0766e-06
2.97184e-06
2.85987e-06
2.76902e-06
2.71488e-06
2.70293e-06
2.73953e-06
2.8138e-06
2.90297e-06
2.97626e-06
3.00543e-06
2.98174e-06
2.91814e-06
2.84418e-06
2.78956e-06
2.77183e-06
2.79255e-06
2.83903e-06
2.88517e-06
2.90394e-06
2.88949e-06
2.87104e-06
2.89232e-06
2.97334e-06
3.08576e-06
3.15292e-06
3.11206e-06
3.00478e-06
2.92393e-06
2.91855e-06
3.0077e-06
3.19833e-06
3.44209e-06
3.68378e-06
3.89105e-06
3.88435e-06
3.61159e-06
3.31411e-06
3.26753e-06
3.68792e-06
4.20735e-06
3.93741e-06
3.21555e-06
3.11498e-06
4.02223e-06
5.02148e-06
4.54056e-06
4.12736e-06
5.5361e-06
6.16279e-06
4.72057e-06
3.74184e-06
3.44848e-06
4.14514e-06
4.51794e-06
1.65262e-06
3.41349e-06
3.1421e-09
6.26002e-09
8.74848e-09
1.93892e-08
1.07889e-08
1.07132e-08
1.78503e-08
1.71987e-08
1.31631e-08
1.08244e-08
1.10029e-08
1.07424e-08
1.0116e-08
9.6694e-09
9.37431e-09
9.12249e-09
8.9436e-09
8.71197e-09
8.27165e-09
8.02905e-09
8.24405e-09
8.41953e-09
7.94895e-09
7.36658e-09
7.15773e-09
7.45668e-09
7.62235e-09
7.16133e-09
6.60981e-09
6.59224e-09
7.32616e-09
7.76153e-09
7.05841e-09
6.16193e-09
5.87156e-09
6.15228e-09
6.38919e-09
6.18003e-09
5.84983e-09
5.56483e-09
5.8015e-09
6.00529e-09
5.75366e-09
5.35474e-09
5.28419e-09
5.61736e-09
5.8672e-09
5.77818e-09
5.54887e-09
5.47329e-09
5.5831e-09
5.65939e-09
5.64429e-09
5.81732e-09
5.79185e-09
5.60319e-09
5.77145e-09
6.47916e-09
6.62948e-09
6.11813e-09
6.0201e-09
6.18289e-09
6.37615e-09
6.27117e-09
6.04003e-09
6.26775e-09
6.35425e-09
6.13687e-09
6.16999e-09
6.62796e-09
7.02011e-09
6.88606e-09
6.47277e-09
6.39429e-09
7.20347e-09
8.45842e-09
9.99578e-09
1.0356e-08
9.39083e-09
1.05812e-08
1.49016e-08
1.33491e-08
1.13653e-08
1.31189e-08
1.19059e-08
8.62725e-09
7.50799e-09
6.03101e-09
3.86764e-09
3.92685e-09
2.04192e-09
2.26859e-09
4.67935e-09
4.73007e-09
2.5657e-08
1.75528e-08
3.1945e-08
4.83959e-08
2.26272e-08
2.45071e-08
3.31202e-08
3.51219e-08
3.30587e-08
3.01724e-08
2.87387e-08
3.62009e-08
3.93052e-08
3.81545e-08
5.31172e-08
6.60259e-08
4.18583e-08
3.4226e-08
4.64818e-08
6.61183e-08
5.52828e-08
4.60839e-08
4.77171e-08
4.77645e-08
5.66304e-08
8.27955e-08
8.03422e-08
7.16774e-08
6.10546e-08
6.278e-08
7.88038e-08
9.83732e-08
1.44388e-07
1.00184e-07
5.94253e-08
7.0445e-08
1.29547e-07
1.39228e-07
1.30873e-07
1.36312e-07
1.26606e-07
1.06576e-07
1.26547e-07
1.70982e-07
1.53513e-07
1.72045e-07
1.96733e-07
1.66169e-07
1.62375e-07
1.8392e-07
1.79426e-07
1.64974e-07
1.61677e-07
1.78122e-07
1.87932e-07
1.66027e-07
1.59108e-07
1.6191e-07
1.43435e-07
1.47158e-07
1.55732e-07
1.58571e-07
1.44238e-07
1.23621e-07
1.24646e-07
1.36669e-07
1.41969e-07
1.25219e-07
1.12025e-07
1.19155e-07
1.29741e-07
1.17451e-07
1.0494e-07
1.06814e-07
1.14997e-07
1.16247e-07
1.03583e-07
9.85149e-08
1.05911e-07
1.06669e-07
9.80072e-08
9.84029e-08
1.01599e-07
9.91729e-08
9.40267e-08
9.43128e-08
9.74612e-08
9.48398e-08
9.42317e-08
9.64883e-08
9.67445e-08
9.35942e-08
9.01622e-08
9.39795e-08
9.69918e-08
9.56256e-08
9.50947e-08
9.68701e-08
9.82872e-08
9.65237e-08
9.52883e-08
9.95564e-08
1.03611e-07
1.04014e-07
1.02121e-07
1.02539e-07
1.06328e-07
1.09942e-07
1.12008e-07
1.10122e-07
1.11902e-07
1.17067e-07
1.22963e-07
1.27324e-07
1.26438e-07
1.27643e-07
1.34325e-07
1.41021e-07
1.43541e-07
1.4883e-07
1.53301e-07
1.58284e-07
1.6635e-07
1.74353e-07
1.89357e-07
1.9555e-07
1.98507e-07
2.10496e-07
2.19683e-07
2.42502e-07
2.62393e-07
2.81554e-07
3.03855e-07
3.11659e-07
3.36369e-07
3.65878e-07
3.9571e-07
4.57405e-07
4.93854e-07
5.13509e-07
6.17136e-07
7.75287e-07
8.18479e-07
8.2976e-07
7.77307e-07
8.08442e-07
1.0244e-06
1.07347e-06
8.33468e-07
7.6354e-07
8.12723e-07
7.52781e-07
5.92599e-07
5.66942e-07
6.16474e-07