/*--------------------------------*- C++ -*----------------------------------*\
| =========                 |                                                 |
| \\      /  F ield         | OpenFOAM: The Open Source CFD Toolbox           |
|  \\    /   O peration     | Version:  v2006                                 |
|   \\  /    A nd           | Website:  www.openfoam.com                      |
|    \\/     M anipulation  |                                                 |
\*---------------------------------------------------------------------------*/
FoamFile
{
    version     2.0;
    format      ascii;
    class       volScalarField;
    location    "2.6";
    object      omega;
}
// * * * * * * * * * * * * * * * * * * * * * * * * * * * * * * * * * * * * * //

dimensions      [0 0 -1 0 0 0 0];


internalField   nonuniform List<scalar> 
33000
(
0.801297
0.801426
0.80169
0.802124
0.802698
0.803328
0.803911
0.804383
0.804721
0.804939
0.805071
0.805144
0.80518
0.805198
0.805205
0.805204
0.805201
0.805197
0.805196
0.805197
0.805202
0.80521
0.805213
0.805216
0.805224
0.805235
0.805251
0.805263
0.805275
0.805289
0.805305
0.805314
0.805323
0.805334
0.805349
0.805367
0.805371
0.805372
0.80538
0.805391
0.805404
0.805402
0.80539
0.805377
0.805367
0.805352
0.805325
0.805292
0.805262
0.805233
0.805201
0.805167
0.805139
0.805119
0.8051
0.805082
0.805064
0.805048
0.805025
0.804992
0.804953
0.804921
0.804901
0.804875
0.804839
0.804796
0.804759
0.804732
0.804694
0.804648
0.804598
0.804536
0.804445
0.804328
0.804211
0.804048
0.803841
0.803655
0.803493
0.803424
0.803403
0.803413
0.803433
0.803431
0.803444
0.803424
0.803385
0.80337
0.803359
0.803348
0.803322
0.803288
0.803247
0.803201
0.803153
0.803077
0.80299
0.80285
0.802748
0.802568
0.802546
0.802503
0.802515
0.802483
0.802476
0.802478
0.802462
0.802437
0.802418
0.802405
0.80239
0.802371
0.802354
0.802319
0.80229
0.802226
0.802209
0.802145
0.802153
0.802183
0.802191
0.802188
0.802191
0.802191
0.802195
0.802198
0.802204
0.802209
0.802211
0.802211
0.802215
0.80222
0.802221
0.802222
0.802222
0.802226
0.802227
0.802228
0.802228
0.802231
0.802233
0.802232
0.802233
0.802234
0.802234
0.802234
0.802235
0.802236
0.802237
0.802238
0.80224
0.802241
0.802242
0.802244
0.802247
0.80225
0.802253
0.802256
0.80226
0.802265
0.80227
0.802276
0.802281
0.802288
0.802296
0.802304
0.802311
0.802318
0.802328
0.802338
0.802349
0.802358
0.802368
0.80238
0.802392
0.802402
0.802411
0.802421
0.80243
0.802439
0.802448
0.802455
0.802462
0.802469
0.802476
0.802481
0.802486
0.80249
0.802494
0.802498
0.8025
0.802501
0.802503
0.802503
0.802503
0.802502
0.8025
0.802498
0.802495
0.802491
0.802486
0.802481
0.802476
0.802469
0.802463
0.802455
0.802447
0.802439
0.802431
0.802422
0.802413
0.802403
0.802393
0.802383
0.802373
0.802363
0.802354
0.802344
0.802334
0.802324
0.802315
0.802305
0.802296
0.802286
0.802277
0.802267
0.802258
0.802249
0.802239
0.80223
0.802221
0.802212
0.802203
0.802194
0.802184
0.802175
0.802166
0.802157
0.802148
0.802139
0.80213
0.802121
0.802112
0.802103
0.802094
0.802085
0.802076
0.802067
0.802058
0.802049
0.80204
0.802031
0.802022
0.802013
0.802004
0.801994
0.801985
0.801976
0.801967
0.801958
0.801949
0.80194
0.80193
0.801921
0.801912
0.801903
0.801893
0.801884
0.801875
0.801865
0.801856
0.801847
0.801837
0.801828
0.801818
0.801809
0.8018
0.80179
0.801781
0.801771
0.801762
0.801752
0.801743
0.801733
0.801724
0.801714
0.801705
0.801695
0.801686
0.801676
0.801666
0.801657
0.801647
0.801637
0.801628
0.801618
0.801608
0.801599
0.801589
0.80158
0.80157
0.801561
0.801551
0.801542
0.801533
0.801523
0.801514
0.801505
0.801497
0.801488
0.80148
0.801471
0.801463
0.801455
0.801447
0.80144
0.801432
0.801425
0.801417
0.80141
0.801403
0.801396
0.80139
0.801383
0.801377
0.80137
0.801364
0.801358
0.801352
0.801346
0.801341
0.801335
0.80133
0.801324
0.801319
0.801314
0.801308
0.801303
0.801298
0.801294
0.801289
0.801284
0.801279
0.801275
0.80127
0.801266
0.801262
0.801257
0.801253
0.801249
0.801245
0.801241
0.801237
0.801233
0.801229
0.801226
0.801222
0.801218
0.801215
0.801211
0.801207
0.801204
0.801201
0.801197
0.801194
0.801191
0.801187
0.801184
0.801181
0.801178
0.801175
0.801172
0.801169
0.801166
0.801163
0.80116
0.801158
0.801155
0.801152
0.801149
0.801147
0.801144
0.801142
0.801139
0.801137
0.801134
0.801132
0.801129
0.801127
0.801125
0.801123
0.80112
0.801118
0.801116
0.801114
0.801112
0.80111
0.801108
0.801106
0.801104
0.801102
0.8011
0.801098
0.801097
0.801095
0.801093
0.801091
0.80109
0.801088
0.801086
0.801085
0.801083
0.801082
0.80108
0.801079
0.801077
0.801076
0.801075
0.801073
0.801072
0.801071
0.801069
0.801068
0.801067
0.801066
0.801065
0.801064
0.801062
0.801061
0.80106
0.80106
0.801059
0.801058
0.801057
0.801056
0.801055
0.801055
0.801054
0.801053
0.801052
0.801051
0.801051
0.80105
0.801049
0.801048
0.801048
0.801047
0.801046
0.801046
0.801045
0.801045
0.801044
0.801044
0.801043
0.801043
0.801042
0.801042
0.801041
0.801041
0.80104
0.80104
0.801039
0.801039
0.801038
0.801038
0.801038
0.801037
0.801039
0.801038
0.801044
0.801043
0.801044
0.801045
0.801045
0.801045
0.801045
0.801045
0.801045
0.801045
0.801044
0.801044
0.801044
0.801044
0.801043
0.801043
0.801043
0.801043
0.801042
0.801042
0.801042
0.801042
0.801042
0.801041
0.801041
0.801041
0.801041
0.80104
0.80104
0.80104
0.80104
0.80104
0.801039
0.801039
0.801039
0.801039
0.801038
0.801038
0.801038
0.801038
0.801038
0.801038
0.801038
0.801037
0.801037
0.801037
0.801037
0.801037
0.801037
0.801036
0.801036
0.801036
0.801036
0.801036
0.801036
0.801036
0.801036
0.801036
0.801036
0.801036
0.801036
0.801036
0.801036
0.801035
0.801035
0.801035
0.801035
0.801035
0.801034
0.801034
0.801034
0.801034
0.801034
0.801034
0.801035
0.801035
0.801035
0.801034
0.801034
0.801035
0.801034
0.00707232
0.0168756
0.0297276
0.0457592
0.0647514
0.0835342
0.0983256
0.109456
0.117606
0.123071
0.125854
0.127237
0.128209
0.129355
0.130423
0.130644
0.129887
0.128449
0.127156
0.12855
0.132324
0.134396
0.13175
0.126987
0.125392
0.127706
0.129896
0.12726
0.123372
0.124632
0.126806
0.123821
0.118192
0.114558
0.11719
0.118957
0.113667
0.106588
0.10425
0.106984
0.111741
0.108988
0.0977577
0.0905026
0.0917397
0.0935262
0.0897881
0.0846044
0.0836357
0.0831869
0.0785854
0.0720487
0.0699743
0.0704266
0.0683873
0.0644906
0.0654988
0.0696365
0.0720676
0.0678304
0.0599
0.0573634
0.0625982
0.0639776
0.0579725
0.049006
0.0447634
0.0467713
0.0461261
0.043875
0.0445301
0.0445791
0.0414698
0.0386242
0.0439157
0.0481035
0.0553933
0.076178
0.070747
0.0415007
0.0362876
0.0281466
0.0347914
0.0290846
0.0237045
0.0206642
0.0184042
0.0206413
0.0198447
0.0202712
0.0170757
0.0150031
0.0139685
0.0137826
0.0122233
0.0110093
0.00976472
0.00945799
0.00931675
0.00960266
0.0114924
0.0152823
0.0182973
0.0154993
0.018228
0.0177339
0.0141959
0.012952
0.0137421
0.0141438
0.0132316
0.0127798
0.0111607
0.00980912
0.00921119
0.00906861
0.00897874
0.00893399
0.00955669
0.0129072
0.0169376
0.0147609
0.0194646
0.0185996
0.0150369
0.0151664
0.0147348
0.0152522
0.0160756
0.0150812
0.014073
0.0150067
0.0152714
0.0151338
0.0144882
0.0142818
0.0155927
0.015604
0.0153138
0.0146698
0.0159533
0.0160026
0.0157917
0.0158682
0.0163439
0.0161931
0.0157433
0.0156376
0.0166024
0.0165045
0.0165747
0.0166447
0.0156817
0.0155135
0.0165813
0.0168251
0.0164402
0.0157922
0.0159001
0.0166585
0.0166779
0.0161415
0.015834
0.0164766
0.0167503
0.0164381
0.0159994
0.0162956
0.0166328
0.0166688
0.0162194
0.0158786
0.0162971
0.016501
0.0162198
0.0159908
0.0158689
0.015984
0.0159204
0.0158435
0.0157641
0.0155338
0.0154789
0.0155118
0.0153614
0.0151096
0.0148769
0.0150095
0.0149418
0.0147472
0.0144483
0.0144683
0.0143695
0.0141824
0.0140201
0.0138496
0.0137774
0.0136421
0.0134153
0.0131829
0.0131509
0.013032
0.0129009
0.0126895
0.0125211
0.0122747
0.0121765
0.0121867
0.0119498
0.0117468
0.0115567
0.0115511
0.0113526
0.0112008
0.0110358
0.0108598
0.0108371
0.0106907
0.0105667
0.01047
0.0102698
0.0101025
0.0101009
0.0100117
0.0099172
0.00980311
0.00972101
0.00962606
0.00951489
0.00950109
0.0094386
0.00938152
0.00931802
0.00926202
0.00920781
0.00919188
0.00916367
0.00913203
0.00910494
0.00908484
0.00906301
0.00904901
0.00903798
0.00902258
0.00900682
0.00899899
0.00899572
0.00898559
0.00897575
0.00896949
0.00896509
0.0089598
0.00895501
0.0089512
0.00894723
0.00894328
0.00893932
0.00893594
0.00893284
0.00892849
0.0089256
0.00892333
0.0089218
0.00892018
0.00891829
0.00891631
0.00891424
0.00891211
0.00891008
0.00890781
0.00890567
0.00890392
0.00890268
0.00890137
0.00890042
0.00889951
0.00889868
0.00889811
0.00889795
0.00889807
0.00889812
0.00889808
0.00889719
0.00889556
0.00889377
0.00889201
0.00889019
0.00888802
0.00888574
0.00888374
0.00888224
0.00888121
0.0088805
0.00888057
0.00888136
0.00888271
0.0088841
0.00888544
0.0088868
0.0088882
0.00888933
0.0088903
0.00889106
0.00889147
0.00889148
0.00889112
0.00889088
0.00889088
0.00889109
0.00889166
0.00889274
0.00889419
0.00889594
0.00889802
0.00890018
0.00890218
0.00890411
0.00890579
0.0089072
0.00890861
0.00891006
0.00891152
0.00891322
0.00891493
0.00891698
0.00891976
0.00892329
0.00892752
0.00893161
0.0089351
0.00893796
0.00894037
0.00894259
0.00894411
0.0089448
0.00894527
0.00894663
0.00894929
0.00895266
0.00895626
0.00896026
0.00896508
0.00897043
0.00897544
0.00897963
0.00898308
0.00898624
0.00898892
0.00899124
0.00899353
0.00899638
0.00899964
0.00900334
0.0090076
0.00901219
0.00901655
0.00901991
0.00902253
0.00902464
0.00902648
0.00902799
0.00902953
0.00903174
0.00903487
0.00903875
0.00904262
0.00904627
0.00904937
0.00905176
0.0090533
0.00905401
0.00905457
0.00905553
0.00905712
0.00905927
0.00906147
0.00906357
0.00906572
0.00906773
0.00906895
0.00906933
0.00906953
0.00907036
0.00907235
0.0090753
0.00907888
0.00908225
0.00908476
0.00908638
0.00908732
0.00908815
0.00908952
0.00909179
0.00909517
0.0090991
0.00910319
0.0091067
0.00910893
0.00910974
0.00910959
0.00910984
0.00911124
0.00911347
0.00911575
0.00911789
0.00911991
0.00912102
0.00912153
0.00912262
0.00912478
0.0091275
0.00912998
0.00913116
0.00913154
0.00913156
0.00913241
0.00913414
0.0091356
0.00913623
0.00913722
0.00913347
0.00913718
0.00914725
0.00914999
0.0091533
0.00915085
0.00915059
0.00914814
0.00914407
0.00913924
0.0091353
0.00913836
0.00913546
0.00913563
0.00913614
0.00913876
0.00913989
0.00913851
0.0091385
0.00913474
0.00913725
0.00914335
0.00914274
0.00914197
0.00913789
0.00913946
0.00913788
0.00913268
0.00912999
0.00912795
0.00913116
0.0091283
0.00913278
0.00913498
0.00913857
0.00913329
0.00912991
0.00913627
0.00912615
0.00912194
0.00914231
0.00914308
0.00918026
0.00914669
0.00913968
0.00908559
0.00912071
0.0092958
0.00980737
0.00967925
0.00965679
0.00946274
0.00938662
0.00933168
0.00929638
0.00928193
0.00927772
0.00927202
0.00926497
0.00925863
0.00924606
0.0092253
0.00920541
0.00919443
0.00919128
0.00918803
0.00917968
0.00916813
0.00915802
0.00915218
0.00915113
0.00915428
0.0091598
0.00916572
0.00917029
0.00917242
0.00917192
0.0091685
0.0091616
0.00915124
0.00913779
0.00912474
0.00912186
0.00912143
0.00912124
0.00912129
0.00912152
0.00912179
0.00912197
0.00912199
0.0091219
0.00912183
0.0091219
0.00912219
0.009124
0.00912716
0.00912644
0.00912291
0.00912148
0.00912117
0.00912115
0.00912129
0.00912161
0.00912199
0.00912372
0.0091298
0.00912143
0.00911939
0.00911885
0.00912069
0.00916488
0.00920949
0.00918806
0.00913136
0.00912388
0.00916731
0.00922028
0.0091872
0.00912008
0.00911811
0.00912844
0.00913176
0.00911731
0.00911683
0.00912184
0.00916603
0.00914417
0.0092044
0.00920711
0.00932983
0.0013249
0.00213907
0.0036734
0.00600398
0.00909635
0.0123098
0.0149676
0.0170026
0.0184478
0.0193592
0.019803
0.0200135
0.0201594
0.0203379
0.0205096
0.0205439
0.0204025
0.0201177
0.0198723
0.020087
0.0206972
0.0209937
0.0204513
0.019584
0.0192155
0.0195191
0.0197186
0.0191171
0.0183955
0.0186603
0.0192178
0.0187612
0.0174623
0.0162781
0.0162374
0.0165635
0.0158577
0.014592
0.0138313
0.0139155
0.0147226
0.014334
0.0125064
0.0110241
0.0108446
0.0110981
0.0106551
0.00987563
0.0095018
0.0092312
0.00849264
0.00758663
0.00718582
0.00711139
0.00673139
0.00615584
0.0061698
0.00674759
0.00710988
0.00645263
0.00546293
0.00519639
0.00581905
0.00594111
0.00510216
0.00416856
0.00372375
0.00375536
0.00367606
0.003545
0.00357054
0.00346778
0.00321947
0.00299712
0.00328628
0.00353292
0.00390109
0.00507649
0.00509883
0.003982
0.00441597
0.00417728
0.00387607
0.00402373
0.00336449
0.00266691
0.00226367
0.00210311
0.00172816
0.00158996
0.00136916
0.00128571
0.00124902
0.00124244
0.00120569
0.00118313
0.00115255
0.00114525
0.00115081
0.00114707
0.00117277
0.00119056
0.00126377
0.00132663
0.00145511
0.00144885
0.00132346
0.00128349
0.00130158
0.00128688
0.00121876
0.0011808
0.00114451
0.00111651
0.00110312
0.00110532
0.0011096
0.00110361
0.00112076
0.00111759
0.00114527
0.00121113
0.00140269
0.00141209
0.00126125
0.0013141
0.00128097
0.00124476
0.00126409
0.00124204
0.00121247
0.00123581
0.00123695
0.00122897
0.00121861
0.0012204
0.00125399
0.0012462
0.00124261
0.00123592
0.00127037
0.00126198
0.00125845
0.00127385
0.0012834
0.00127195
0.00126411
0.00127235
0.0012976
0.00128605
0.00128859
0.00129455
0.0012708
0.00126911
0.00129591
0.00130134
0.00128778
0.00127262
0.00127938
0.00129937
0.00130057
0.00128517
0.00127525
0.00129381
0.00130503
0.00129569
0.00128136
0.00128741
0.00130028
0.00130309
0.00128622
0.0012762
0.00129012
0.00129665
0.00128314
0.00127803
0.00127749
0.00127707
0.00127308
0.00127046
0.00126909
0.00126284
0.00126071
0.00125992
0.00125407
0.00124563
0.00123868
0.00124077
0.00123829
0.00123266
0.00122495
0.0012234
0.00121918
0.0012124
0.00120616
0.00120174
0.00120026
0.00119509
0.00118735
0.00118073
0.00117814
0.0011749
0.00117118
0.00116372
0.00115864
0.00115313
0.00115057
0.0011486
0.00114133
0.00113645
0.00113235
0.00113082
0.00112493
0.00112101
0.00111709
0.00111284
0.00111114
0.0011076
0.00110467
0.0011022
0.00109761
0.00109461
0.00109327
0.00109115
0.00108945
0.00108682
0.00108508
0.00108327
0.00108138
0.00108068
0.00107967
0.00107885
0.00107779
0.00107711
0.00107652
0.00107645
0.00107632
0.00107624
0.00107614
0.00107633
0.00107655
0.00107659
0.00107669
0.00107685
0.0010771
0.0010773
0.00107754
0.00107784
0.00107807
0.00107826
0.00107846
0.00107871
0.00107895
0.00107914
0.00107926
0.00107928
0.00107922
0.0010792
0.00107938
0.00107957
0.00107972
0.00107984
0.00107998
0.00108011
0.0010802
0.00108026
0.00108028
0.00108033
0.00108034
0.00108032
0.00108031
0.00108032
0.00108038
0.0010804
0.00108037
0.00108037
0.00108041
0.00108047
0.00108053
0.0010806
0.00108066
0.0010807
0.00108072
0.00108073
0.0010807
0.00108068
0.00108066
0.00108064
0.00108062
0.00108059
0.00108057
0.00108058
0.00108061
0.00108066
0.00108072
0.00108076
0.00108078
0.00108081
0.00108084
0.00108085
0.00108084
0.00108079
0.00108074
0.0010807
0.00108065
0.00108058
0.00108052
0.00108047
0.00108043
0.00108039
0.00108036
0.00108033
0.0010803
0.00108028
0.00108026
0.00108026
0.00108025
0.00108025
0.00108024
0.00108024
0.00108026
0.00108029
0.00108032
0.00108037
0.00108042
0.00108049
0.00108054
0.00108061
0.00108069
0.00108077
0.00108084
0.0010809
0.00108097
0.00108106
0.00108115
0.00108123
0.00108132
0.00108142
0.00108153
0.00108166
0.00108179
0.00108192
0.00108204
0.00108218
0.00108232
0.00108247
0.00108263
0.00108276
0.00108291
0.00108307
0.0010832
0.00108334
0.00108347
0.00108362
0.00108377
0.00108392
0.00108404
0.00108417
0.00108431
0.00108447
0.00108462
0.00108478
0.00108494
0.00108508
0.00108523
0.00108538
0.00108552
0.00108565
0.00108578
0.00108591
0.00108603
0.00108614
0.00108625
0.00108637
0.0010865
0.00108661
0.0010867
0.00108679
0.0010869
0.00108704
0.00108717
0.00108729
0.00108743
0.00108756
0.00108767
0.00108779
0.0010879
0.00108801
0.00108813
0.00108827
0.00108841
0.00108857
0.00108874
0.00108888
0.00108901
0.00108914
0.00108927
0.00108942
0.00108959
0.00108975
0.00108991
0.00109004
0.00109015
0.00109024
0.00109034
0.00109049
0.00109067
0.00109086
0.00109104
0.00109116
0.00109127
0.00109139
0.00109152
0.00109163
0.00109178
0.001092
0.00109219
0.00109248
0.00109261
0.00109252
0.00109255
0.00109251
0.00109277
0.00109311
0.00109337
0.00109327
0.00109337
0.00109354
0.00109368
0.00109405
0.00109419
0.00109428
0.00109435
0.00109449
0.00109455
0.00109479
0.00109506
0.00109537
0.00109558
0.00109557
0.0010958
0.00109641
0.00109648
0.00109636
0.00109644
0.00109668
0.00109683
0.00109694
0.00109728
0.00109765
0.00109794
0.00109802
0.0010979
0.00109757
0.00109878
0.00109937
0.00109817
0.00109965
0.00110189
0.00110399
0.0010918
0.00109363
0.00108482
0.00108282
0.00109527
0.00109927
0.00110411
0.0011032
0.00110701
0.00110406
0.00110622
0.00110745
0.00110727
0.00110782
0.00110864
0.00110924
0.00110927
0.00110923
0.0011091
0.00110881
0.00110852
0.00110841
0.00110836
0.00110821
0.00110789
0.00110738
0.00110685
0.00110637
0.00110608
0.00110602
0.00110616
0.00110642
0.00110668
0.00110678
0.00110668
0.00110637
0.00110594
0.00110547
0.00110503
0.00110473
0.0011046
0.00110462
0.00110482
0.00110494
0.00110489
0.00110467
0.00110435
0.00110405
0.00110389
0.00110394
0.00110419
0.00110452
0.00110478
0.00110489
0.0011049
0.00110496
0.00110512
0.00110538
0.0011056
0.00110558
0.0011053
0.00110498
0.00110481
0.00110491
0.00110542
0.00110608
0.00110659
0.00110741
0.001108
0.001108
0.00110806
0.00110749
0.00110729
0.00110827
0.00110901
0.00110896
0.00110728
0.00110695
0.00110891
0.00110973
0.00110852
0.0011074
0.00110957
0.00111022
0.00110875
0.00110848
0.00110986
0.00110429
0.00109501
0.00110384
0.00114254
0.00136873
0.00175606
0.00231219
0.00302002
0.00368552
0.00414326
0.00441536
0.00455389
0.00460082
0.00458691
0.00456134
0.00455014
0.00455788
0.00457169
0.00457171
0.00454885
0.00450666
0.00446852
0.00448003
0.00453276
0.00454806
0.00447069
0.00435002
0.0042715
0.00425902
0.00423796
0.00414708
0.00405034
0.00405685
0.00412144
0.00406733
0.00387152
0.00365323
0.00355623
0.00354134
0.00344725
0.00327677
0.00313585
0.00308792
0.00313664
0.00307931
0.00287112
0.00266976
0.0025918
0.00257558
0.00250977
0.00241173
0.00234507
0.00229188
0.00219397
0.00207204
0.00198864
0.00194957
0.00189889
0.00183404
0.00181378
0.00185209
0.00186875
0.00179478
0.00170801
0.00168427
0.00172297
0.00171557
0.00162948
0.00155671
0.00152359
0.001506
0.0014756
0.00145859
0.00146386
0.00146616
0.00145902
0.00143713
0.00142124
0.00140744
0.00140356
0.00144112
0.00146653
0.00147466
0.00155205
0.00166372
0.00178966
0.00197643
0.00215286
0.00243925
0.00276084
0.00317096
0.00290739
0.00208583
0.00171492
0.00136031
0.00123308
0.00113577
0.0010928
0.00108526
0.001086
0.00108392
0.00108829
0.00107706
0.00107854
0.00109471
0.00110529
0.00112673
0.00111643
0.00114103
0.00119929
0.00125602
0.00129753
0.00124594
0.00114822
0.00114294
0.00110801
0.00108583
0.0010686
0.00106366
0.00105134
0.0010508
0.00105336
0.00107179
0.00106675
0.00107983
0.00107892
0.00109739
0.00112134
0.00119883
0.00117046
0.0010824
0.00107472
0.00106092
0.00105481
0.00105787
0.00105378
0.00104432
0.00104431
0.00104396
0.00103987
0.00104142
0.00104718
0.00104844
0.00104483
0.00104325
0.00104466
0.00104633
0.00104545
0.00104643
0.00104781
0.00104684
0.00104494
0.00104622
0.00104728
0.00104637
0.00104824
0.0010499
0.00104792
0.0010462
0.00104656
0.00104821
0.00104904
0.0010475
0.00104669
0.00104871
0.00104956
0.00104869
0.00104728
0.00104717
0.0010488
0.00104868
0.00104753
0.00104679
0.00104785
0.00104807
0.00104656
0.00104652
0.00104697
0.00104657
0.00104576
0.00104535
0.00104561
0.00104519
0.00104471
0.00104423
0.00104375
0.00104314
0.00104256
0.00104213
0.00104201
0.00104135
0.00104066
0.00104009
0.00103951
0.00103876
0.0010383
0.00103775
0.00103665
0.00103569
0.00103539
0.00103499
0.00103448
0.00103362
0.00103256
0.00103203
0.00103137
0.00103096
0.00103034
0.00102966
0.00102866
0.00102761
0.00102735
0.00102693
0.00102617
0.00102541
0.00102504
0.00102448
0.00102391
0.00102321
0.00102271
0.00102235
0.00102181
0.00102137
0.00102106
0.00102077
0.00102041
0.00101998
0.00101969
0.00101946
0.00101929
0.00101918
0.001019
0.00101886
0.00101882
0.00101891
0.00101903
0.00101911
0.0010191
0.00101912
0.00101926
0.00101948
0.00101991
0.00102026
0.00102029
0.00102019
0.00102047
0.0010207
0.00102081
0.00102096
0.00102133
0.00102161
0.00102159
0.00102152
0.00102163
0.00102172
0.00102178
0.00102185
0.00102182
0.00102174
0.00102165
0.00102166
0.00102172
0.0010216
0.0010215
0.00102142
0.00102135
0.00102129
0.00102119
0.00102104
0.00102086
0.0010207
0.00102052
0.00102034
0.0010202
0.00102009
0.00102004
0.00101989
0.00101963
0.00101939
0.00101919
0.001019
0.00101882
0.00101864
0.00101846
0.00101828
0.00101806
0.00101783
0.00101761
0.00101738
0.00101716
0.00101693
0.0010167
0.00101647
0.00101625
0.00101605
0.00101584
0.00101565
0.00101545
0.00101525
0.00101505
0.00101486
0.00101466
0.00101446
0.00101425
0.00101404
0.00101383
0.00101362
0.0010134
0.00101318
0.00101296
0.00101275
0.00101254
0.00101233
0.00101212
0.00101193
0.00101173
0.00101155
0.00101136
0.00101118
0.00101099
0.00101081
0.00101062
0.00101043
0.00101025
0.00101007
0.0010099
0.00100972
0.00100955
0.00100939
0.00100924
0.0010091
0.00100895
0.00100881
0.00100867
0.00100853
0.00100839
0.00100825
0.0010081
0.00100795
0.00100782
0.00100771
0.00100759
0.00100749
0.00100738
0.00100729
0.00100719
0.00100709
0.00100699
0.0010069
0.0010068
0.00100669
0.0010066
0.0010065
0.00100641
0.00100633
0.00100625
0.00100618
0.00100611
0.00100604
0.00100597
0.0010059
0.00100583
0.00100575
0.00100567
0.0010056
0.00100553
0.00100547
0.00100541
0.00100536
0.0010053
0.00100524
0.00100517
0.00100511
0.00100504
0.00100497
0.00100491
0.00100485
0.0010048
0.00100474
0.00100469
0.00100463
0.00100457
0.00100451
0.00100445
0.00100438
0.00100433
0.00100427
0.00100422
0.00100417
0.00100411
0.00100405
0.00100399
0.00100393
0.00100387
0.00100381
0.00100376
0.00100372
0.00100367
0.00100362
0.00100357
0.00100351
0.00100345
0.00100339
0.00100334
0.00100329
0.00100325
0.0010032
0.00100315
0.0010031
0.00100304
0.001003
0.00100294
0.00100288
0.00100282
0.00100278
0.00100277
0.00100271
0.00100276
0.00100267
0.0010024
0.00100233
0.00100229
0.00100224
0.00100165
0.00100163
0.00100214
0.00100211
0.00100218
0.00100216
0.00100227
0.00100225
0.00100212
0.00100209
0.00100203
0.001002
0.00100195
0.00100184
0.0010018
0.0010018
0.00100173
0.00100169
0.00100156
0.00100155
0.00100165
0.00100165
0.00100165
0.00100162
0.00100166
0.00100161
0.00100163
0.00100157
0.00100146
0.00100144
0.00100163
0.00100153
0.00100216
0.00100179
0.00100131
0.00100156
0.00100127
0.00100252
0.00100252
0.001006
0.00100585
0.00100216
0.00100249
0.00100238
0.00100247
0.00100244
0.00100258
0.00100209
0.00100192
0.00100165
0.00100154
0.0010015
0.00100143
0.0010014
0.00100139
0.00100138
0.00100138
0.00100138
0.00100137
0.00100137
0.00100136
0.00100136
0.00100136
0.00100136
0.00100135
0.00100134
0.00100134
0.00100133
0.00100133
0.00100133
0.00100133
0.00100134
0.00100134
0.00100134
0.00100134
0.00100133
0.00100133
0.00100133
0.00100132
0.00100131
0.00100131
0.00100131
0.00100131
0.00100131
0.00100131
0.0010013
0.0010013
0.0010013
0.0010013
0.0010013
0.0010013
0.00100131
0.00100131
0.00100131
0.00100131
0.00100131
0.00100131
0.00100131
0.00100131
0.00100131
0.00100131
0.00100131
0.00100131
0.00100131
0.00100131
0.00100132
0.00100132
0.00100134
0.00100135
0.00100135
0.00100135
0.00100134
0.00100133
0.00100136
0.00100137
0.00100137
0.00100134
0.00100133
0.00100138
0.00100138
0.00100136
0.00100136
0.00100141
0.00100139
0.00100136
0.00100135
0.00100138
0.00100126
0.0010012
0.00100124
0.00113099
0.00130468
0.00156931
0.00190979
0.0023002
0.00260221
0.00272616
0.00271759
0.00264077
0.00254109
0.0024446
0.00237208
0.00232705
0.00230269
0.0022898
0.00228032
0.00226963
0.00225715
0.00224552
0.002237
0.00223025
0.00222136
0.00220698
0.00218721
0.00216596
0.00214675
0.00213004
0.00211324
0.00209571
0.00207926
0.00206173
0.00203957
0.00201506
0.00199146
0.00196924
0.00194455
0.00191503
0.00188602
0.00186352
0.00184848
0.0018347
0.00181505
0.0017897
0.00176571
0.00174267
0.00171526
0.00168645
0.00166464
0.00165214
0.00163992
0.00161918
0.00159345
0.00156983
0.0015494
0.00153606
0.00152237
0.00150015
0.00147975
0.00147559
0.00147069
0.0014521
0.00143367
0.00142953
0.00143378
0.00142395
0.0014015
0.00139185
0.00139436
0.00138493
0.00136381
0.00135063
0.00135157
0.00136211
0.00136588
0.00134083
0.00130889
0.00128853
0.001274
0.00126472
0.00125563
0.00125257
0.00127863
0.00132091
0.00137441
0.00148097
0.00166422
0.0018688
0.00210705
0.00235683
0.00257339
0.00299643
0.00280061
0.00208481
0.00173414
0.00137315
0.00123551
0.00114019
0.00110169
0.0010861
0.00108013
0.00107219
0.00107422
0.00107023
0.00107469
0.00107795
0.00107942
0.00111046
0.00113744
0.00113281
0.00117317
0.00122864
0.00130185
0.00124616
0.00113868
0.0011281
0.00110658
0.00108842
0.00106856
0.00105819
0.00105018
0.00105058
0.00105166
0.00106465
0.00106328
0.00107669
0.00107505
0.00109437
0.00112191
0.00119957
0.00117001
0.00107987
0.00106971
0.00105544
0.00104874
0.00104346
0.00105831
0.00105666
0.00104576
0.00104522
0.00104156
0.00103998
0.00104344
0.00104531
0.00104372
0.00104337
0.00104399
0.00104429
0.00104369
0.0010429
0.00104385
0.0010446
0.00104424
0.00104562
0.00104517
0.00104432
0.00104379
0.00104475
0.00104665
0.00104632
0.00104481
0.00104395
0.00104525
0.00104674
0.00104548
0.0010438
0.00104483
0.00104637
0.00104567
0.00104394
0.00104347
0.00104505
0.00104535
0.00104364
0.00104313
0.00104437
0.00104376
0.0010427
0.00104268
0.00104316
0.00104268
0.00104171
0.00104172
0.00104137
0.00104057
0.00104008
0.00104018
0.00104024
0.00103917
0.00103825
0.00103799
0.00103765
0.00103689
0.00103626
0.00103606
0.00103582
0.00103474
0.00103369
0.00103331
0.00103315
0.00103267
0.00103176
0.00103089
0.00103034
0.00103014
0.00102956
0.00102871
0.00102788
0.00102725
0.00102689
0.00102641
0.00102571
0.00102506
0.00102462
0.00102407
0.00102362
0.0010231
0.00102258
0.00102222
0.00102165
0.00102133
0.00102105
0.00102064
0.00102048
0.0010201
0.0010198
0.00101955
0.00101934
0.00101933
0.00101914
0.00101901
0.001019
0.00101904
0.00101915
0.00101928
0.00101922
0.00101922
0.00101938
0.00101965
0.00102008
0.00102017
0.00101997
0.00102006
0.00102056
0.00102079
0.00102078
0.00102094
0.00102135
0.00102144
0.00102131
0.00102132
0.00102148
0.00102149
0.00102149
0.00102157
0.00102161
0.00102157
0.00102151
0.00102149
0.00102149
0.00102132
0.00102119
0.00102106
0.00102097
0.00102092
0.00102081
0.00102067
0.00102053
0.00102036
0.00102018
0.00101999
0.00101985
0.00101972
0.00101957
0.00101942
0.00101925
0.00101905
0.00101883
0.00101863
0.00101844
0.00101825
0.00101806
0.00101787
0.00101764
0.00101739
0.00101716
0.00101692
0.00101669
0.00101645
0.00101621
0.00101598
0.00101576
0.00101554
0.00101533
0.00101513
0.00101493
0.00101474
0.00101454
0.00101435
0.00101415
0.00101395
0.00101375
0.00101354
0.00101332
0.0010131
0.00101288
0.00101266
0.00101243
0.00101221
0.00101199
0.00101177
0.00101156
0.00101136
0.00101116
0.00101096
0.00101077
0.00101058
0.00101039
0.0010102
0.00101001
0.00100981
0.00100962
0.00100944
0.00100926
0.00100909
0.00100893
0.00100876
0.0010086
0.00100845
0.00100831
0.00100817
0.00100801
0.00100786
0.00100771
0.00100757
0.00100742
0.00100727
0.00100713
0.00100701
0.0010069
0.00100679
0.00100668
0.00100658
0.00100648
0.00100637
0.00100627
0.00100617
0.00100606
0.00100596
0.00100586
0.00100577
0.00100568
0.00100559
0.00100551
0.00100544
0.00100536
0.00100528
0.0010052
0.00100512
0.00100504
0.00100497
0.00100489
0.00100482
0.00100476
0.00100469
0.00100463
0.00100457
0.00100451
0.00100444
0.00100437
0.0010043
0.00100423
0.00100416
0.0010041
0.00100404
0.00100398
0.00100392
0.00100385
0.00100379
0.00100372
0.00100366
0.0010036
0.00100354
0.00100348
0.00100342
0.00100336
0.0010033
0.00100323
0.00100316
0.0010031
0.00100304
0.00100298
0.00100292
0.00100287
0.00100282
0.00100276
0.00100271
0.00100265
0.00100259
0.00100253
0.00100247
0.00100242
0.00100237
0.00100231
0.00100226
0.0010022
0.00100214
0.00100206
0.00100201
0.00100199
0.00100193
0.00100188
0.00100192
0.00100182
0.00100151
0.00100143
0.00100141
0.00100135
0.00100066
0.00100065
0.00100124
0.00100119
0.00100122
0.00100122
0.00100137
0.00100134
0.00100121
0.00100117
0.00100111
0.00100109
0.00100104
0.0010009
0.00100084
0.00100078
0.00100072
0.00100052
0.00100051
0.00100063
0.0010006
0.00100061
0.00100056
0.00100055
0.00100064
0.00100059
0.00100058
0.00100048
0.00100034
0.0010003
0.00100053
0.00100044
0.00100107
0.00100069
0.00100041
0.00100003
0.0010017
0.00100143
0.00100238
0.0010058
0.00100575
0.00100124
0.00100159
0.00100147
0.00100136
0.00100136
0.00100092
0.00100027
0.00100008
0.00100019
0.00100024
0.00100033
0.00100029
0.0010002
0.0010001
0.00100003
0.000999988
0.000999966
0.00099995
0.000999935
0.000999924
0.000999916
0.000999909
0.000999903
0.000999901
0.000999902
0.000999905
0.000999907
0.000999909
0.000999908
0.000999906
0.000999905
0.000999904
0.000999904
0.000999903
0.000999903
0.000999907
0.000999914
0.000999923
0.00099993
0.000999934
0.000999932
0.000999926
0.000999917
0.00099991
0.000999905
0.000999903
0.000999905
0.000999909
0.000999914
0.000999918
0.000999921
0.000999922
0.000999921
0.000999918
0.000999916
0.000999916
0.000999917
0.000999913
0.000999905
0.000999898
0.000999896
0.000999905
0.000999915
0.000999915
0.000999912
0.000999905
0.000999889
0.000999874
0.00099987
0.00099987
0.000999876
0.000999881
0.000999879
0.00099987
0.000999863
0.000999871
0.000999903
0.000999915
0.000999865
0.000999863
0.000999858
0.000999879
0.000999855
0.000999878
0.000999855
0.000999869
0.000999856
0.00099987
0.000999863
0.000999875
0.00100017
0.000999985
0.00113127
0.0013023
0.00155927
0.00188055
0.00223711
0.0024974
0.00258184
0.00253609
0.0024261
0.00229921
0.00218275
0.00209558
0.00204053
0.0020095
0.00199077
0.00197618
0.00196214
0.00194983
0.0019416
0.00193569
0.00192826
0.00191867
0.00190885
0.00189868
0.00188643
0.00187356
0.00186463
0.0018601
0.0018536
0.00183949
0.00181828
0.00179724
0.00178258
0.00177558
0.00177177
0.00176478
0.00175068
0.00173363
0.00172164
0.00172089
0.00171812
0.0017022
0.00168368
0.00167779
0.00167055