/*--------------------------------*- C++ -*----------------------------------*\
| =========                 |                                                 |
| \\      /  F ield         | OpenFOAM: The Open Source CFD Toolbox           |
|  \\    /   O peration     | Version:  v2006                                 |
|   \\  /    A nd           | Website:  www.openfoam.com                      |
|    \\/     M anipulation  |                                                 |
\*---------------------------------------------------------------------------*/
FoamFile
{
    version     2.0;
    format      ascii;
    class       volScalarField;
    location    "2.6";
    object      p;
}
// * * * * * * * * * * * * * * * * * * * * * * * * * * * * * * * * * * * * * //

dimensions      [1 -1 -2 0 0 0 0];


internalField   nonuniform List<scalar> 
33000
(
8482.78
8477.54
8472
8467.75
8464.08
8460.28
8456.07
8451.39
8446.64
8441.97
8437.17
8432.15
8426.97
8421.68
8416.26
8410.71
8405.04
8399.24
8393.33
8387.3
8381.14
8374.87
8368.51
8362.06
8355.49
8348.81
8342.02
8335.17
8328.25
8321.22
8314.07
8306.88
8299.64
8292.31
8284.9
8277.41
8269.88
8262.33
8254.7
8247.01
8239.28
8231.51
8223.73
8215.93
8208.08
8200.19
8192.3
8184.41
8176.51
8168.59
8160.68
8152.78
8144.9
8137.02
8129.16
8121.35
8113.57
8105.81
8098.1
8090.45
8082.86
8075.34
8067.87
8060.46
8053.15
8045.93
8038.81
8031.78
8024.86
8018.08
8011.44
8004.95
7998.66
7992.6
7986.82
7981.4
7976.42
7971.75
7966.35
7955.96
7950.32
7943.55
7936.59
7930.15
7923.62
7916.63
7910.22
7903.67
7897.44
7891.13
7885.05
7879
7873.04
7867.19
7861.46
7855.85
7850.4
7845.05
7839.99
7834.76
7829.37
7824.28
7819.29
7814.43
7809.72
7805.13
7800.66
7796.34
7792.14
7788.09
7784.16
7780.37
7776.72
7773.19
7769.8
7766.52
7763.44
7760.32
7757.17
7754.22
7751.34
7748.57
7745.9
7743.33
7740.84
7738.45
7736.16
7733.94
7731.81
7729.76
7727.8
7725.9
7724.08
7722.34
7720.66
7719.04
7717.49
7716
7714.56
7713.18
7711.84
7710.57
7709.33
7708.14
7707
7705.89
7704.83
7703.8
7702.81
7701.85
7700.92
7700.03
7699.16
7698.32
7697.5
7696.7
7695.93
7695.18
7694.45
7693.73
7693.04
7692.35
7691.69
7691.03
7690.39
7689.76
7689.14
7688.53
7687.93
7687.34
7686.75
7686.18
7685.6
7685.04
7684.48
7683.93
7683.39
7682.85
7682.32
7681.8
7681.29
7680.78
7680.28
7679.79
7679.32
7678.85
7678.39
7677.94
7677.51
7677.08
7676.67
7676.27
7675.89
7675.52
7675.17
7674.83
7674.5
7674.2
7673.91
7673.64
7673.38
7673.14
7672.93
7672.73
7672.55
7672.39
7672.25
7672.13
7672.03
7671.95
7671.89
7671.84
7671.82
7671.82
7671.84
7671.88
7671.94
7672.01
7672.11
7672.22
7672.36
7672.51
7672.67
7672.85
7673.05
7673.27
7673.5
7673.75
7674.01
7674.28
7674.57
7674.87
7675.18
7675.5
7675.84
7676.18
7676.53
7676.89
7677.27
7677.64
7678.03
7678.42
7678.82
7679.23
7679.64
7680.06
7680.48
7680.9
7681.33
7681.77
7682.2
7682.64
7683.08
7683.53
7683.97
7684.42
7684.87
7685.32
7685.77
7686.23
7686.68
7687.14
7687.59
7688.05
7688.5
7688.96
7689.42
7689.88
7690.33
7690.79
7691.24
7691.7
7692.16
7692.61
7693.06
7693.52
7693.97
7694.42
7694.88
7695.33
7695.78
7696.23
7696.68
7697.12
7697.57
7698.02
7698.46
7698.91
7699.35
7699.79
7700.23
7700.67
7701.11
7701.55
7701.98
7702.42
7702.85
7703.28
7703.71
7704.14
7704.57
7705
7705.42
7705.85
7706.27
7706.69
7707.11
7707.53
7707.95
7708.36
7708.78
7709.19
7709.6
7710.01
7710.42
7710.83
7711.23
7711.63
7712.04
7712.43
7712.83
7713.23
7713.62
7714.01
7714.4
7714.79
7715.18
7715.56
7715.94
7716.32
7716.7
7717.07
7717.44
7717.81
7718.18
7718.54
7718.9
7719.26
7719.62
7719.97
7720.32
7720.67
7721.01
7721.35
7721.69
7722.03
7722.36
7722.68
7723.01
7723.33
7723.65
7723.96
7724.27
7724.58
7724.89
7725.19
7725.48
7725.78
7726.07
7726.35
7726.63
7726.91
7727.19
7727.46
7727.72
7727.99
7728.25
7728.5
7728.76
7729
7729.25
7729.49
7729.73
7729.96
7730.19
7730.42
7730.64
7730.86
7731.07
7731.29
7731.49
7731.7
7731.9
7732.1
7732.29
7732.48
7732.67
7732.86
7733.04
7733.21
7733.39
7733.56
7733.73
7733.89
7734.06
7734.21
7734.37
7734.52
7734.67
7734.82
7734.97
7735.11
7735.25
7735.38
7735.52
7735.65
7735.78
7735.9
7736.02
7736.15
7736.26
7736.38
7736.49
7736.6
7736.71
7736.82
7736.92
7737.03
7737.13
7737.23
7737.32
7737.41
7737.51
7737.6
7737.68
7737.77
7737.85
7737.94
7738.01
7738.1
7738.17
7738.24
7738.31
7738.38
7738.45
7738.52
7738.58
7738.65
7738.71
7738.78
7738.84
7738.9
7738.96
7739.01
7739.07
7739.13
7739.18
7739.23
7739.28
7739.33
7739.38
7739.43
7739.48
7739.52
7739.57
7739.61
7739.65
7739.69
7739.73
7739.77
7739.81
7739.85
7739.89
7739.92
7739.96
7739.99
7740.02
7740.05
7740.09
7740.11
7740.13
7740.15
7740.18
7740.2
7740.22
7740.24
7740.27
7740.29
7740.32
7740.34
7740.36
7740.39
7740.41
7740.44
7740.46
7740.49
7740.51
7740.53
7740.56
7740.58
7740.6
7740.62
7740.65
7740.67
7740.69
7740.71
7740.73
7740.75
7740.77
7740.79
7740.81
7740.83
7740.85
7740.87
7740.89
7740.91
7740.93
7740.95
7740.97
7740.99
7741
7741.02
7741.04
7741.05
7741.07
7741.09
7741.1
7741.12
7741.13
7741.15
7741.16
7741.18
7741.19
7741.21
7741.22
7741.24
7741.25
7741.26
7741.28
7741.29
7741.3
7741.31
7741.33
7741.34
7741.35
7741.36
7741.37
7741.38
7741.39
7741.4
7741.41
7741.42
7741.43
7741.44
7741.45
7741.46
7741.47
7741.48
7741.49
7741.5
8286.94
8281.71
8276.16
8271.91
8268.25
8264.47
8260.26
8255.55
8250.8
8246.12
8241.3
8236.27
8231.1
8225.8
8220.38
8214.83
8209.15
8203.35
8197.43
8191.39
8185.23
8178.97
8172.6
8166.13
8159.54
8152.85
8146.08
8139.22
8132.28
8125.23
8118.11
8110.9
8103.63
8096.29
8088.88
8081.41
8073.87
8066.27
8058.63
8050.95
8043.22
8035.43
8027.63
8019.79
8011.93
8004.04
7996.13
7988.22
7980.3
7972.37
7964.45
7956.53
7948.63
7940.75
7932.89
7925.06
7917.26
7909.5
7901.78
7894.11
7886.51
7878.96
7871.47
7864.06
7856.73
7849.49
7842.34
7835.29
7828.35
7821.53
7814.84
7808.29
7801.89
7795.66
7789.59
7783.67
7777.84
7772.02
7766.17
7760.74
7756.08
7750.31
7739.51
7733.55
7726.69
7720.05
7713.81
7707.55
7701.41
7694.83
7688.7
7682.58
7676.6
7670.75
7665.01
7659.34
7653.82
7648.41
7643.13
7637.93
7632.81
7627.95
7623.01
7618.01
7613.27
7608.66
7604.19
7599.87
7595.68
7591.63
7587.7
7583.91
7580.25
7576.7
7573.28
7569.98
7566.8
7563.71
7560.7
7557.88
7555.04
7552.19
7549.52
7546.94
7544.46
7542.08
7539.79
7537.58
7535.45
7533.41
7531.45
7529.56
7527.75
7526
7524.33
7522.72
7521.17
7519.69
7518.25
7516.88
7515.55
7514.28
7513.05
7511.87
7510.73
7509.63
7508.57
7507.55
7506.55
7505.6
7504.68
7503.78
7502.92
7502.08
7501.26
7500.47
7499.7
7498.95
7498.22
7497.51
7496.81
7496.13
7495.47
7494.81
7494.17
7493.54
7492.93
7492.32
7491.72
7491.13
7490.55
7489.97
7489.4
7488.83
7488.28
7487.73
7487.18
7486.65
7486.12
7485.6
7485.08
7484.58
7484.08
7483.59
7483.11
7482.64
7482.18
7481.73
7481.3
7480.87
7480.46
7480.06
7479.68
7479.31
7478.95
7478.61
7478.29
7477.98
7477.69
7477.42
7477.16
7476.92
7476.71
7476.51
7476.33
7476.17
7476.03
7475.9
7475.8
7475.72
7475.66
7475.62
7475.6
7475.6
7475.62
7475.66
7475.71
7475.79
7475.89
7476
7476.13
7476.28
7476.45
7476.64
7476.84
7477.05
7477.28
7477.53
7477.79
7478.07
7478.35
7478.65
7478.97
7479.29
7479.62
7479.97
7480.32
7480.68
7481.05
7481.43
7481.82
7482.22
7482.62
7483.02
7483.43
7483.85
7484.27
7484.7
7485.13
7485.56
7486
7486.44
7486.88
7487.32
7487.77
7488.22
7488.67
7489.12
7489.57
7490.03
7490.48
7490.93
7491.39
7491.85
7492.3
7492.76
7493.22
7493.67
7494.13
7494.59
7495.04
7495.5
7495.95
7496.41
7496.86
7497.32
7497.77
7498.22
7498.68
7499.13
7499.58
7500.03
7500.48
7500.92
7501.37
7501.82
7502.26
7502.7
7503.15
7503.59
7504.03
7504.47
7504.91
7505.34
7505.78
7506.22
7506.65
7507.08
7507.51
7507.94
7508.37
7508.8
7509.22
7509.65
7510.07
7510.49
7510.91
7511.33
7511.75
7512.16
7512.58
7512.99
7513.4
7513.81
7514.22
7514.63
7515.03
7515.44
7515.84
7516.24
7516.63
7517.03
7517.42
7517.82
7518.21
7518.59
7518.98
7519.36
7519.74
7520.12
7520.5
7520.87
7521.25
7521.61
7521.98
7522.35
7522.71
7523.07
7523.42
7523.78
7524.13
7524.47
7524.82
7525.16
7525.5
7525.83
7526.16
7526.49
7526.82
7527.14
7527.46
7527.77
7528.08
7528.39
7528.69
7528.99
7529.29
7529.58
7529.87
7530.16
7530.44
7530.72
7530.99
7531.26
7531.53
7531.79
7532.05
7532.31
7532.56
7532.81
7533.06
7533.3
7533.53
7533.77
7534
7534.22
7534.45
7534.67
7534.88
7535.09
7535.3
7535.51
7535.71
7535.91
7536.1
7536.29
7536.48
7536.66
7536.84
7537.02
7537.2
7537.37
7537.54
7537.7
7537.86
7538.02
7538.18
7538.33
7538.48
7538.63
7538.77
7538.91
7539.05
7539.19
7539.32
7539.45
7539.58
7539.71
7539.83
7539.95
7540.07
7540.19
7540.3
7540.41
7540.52
7540.63
7540.73
7540.83
7540.93
7541.03
7541.13
7541.22
7541.31
7541.4
7541.49
7541.57
7541.66
7541.74
7541.82
7541.89
7541.97
7542.04
7542.11
7542.18
7542.25
7542.32
7542.39
7542.45
7542.52
7542.58
7542.64
7542.7
7542.76
7542.82
7542.88
7542.93
7542.98
7543.04
7543.09
7543.14
7543.18
7543.23
7543.28
7543.32
7543.37
7543.41
7543.45
7543.5
7543.54
7543.58
7543.61
7543.65
7543.69
7543.72
7543.76
7543.81
7543.83
7543.85
7543.88
7543.9
7543.93
7543.95
7543.98
7544
7544.03
7544.05
7544.08
7544.1
7544.12
7544.15
7544.17
7544.19
7544.22
7544.24
7544.26
7544.29
7544.31
7544.33
7544.36
7544.38
7544.4
7544.42
7544.45
7544.47
7544.49
7544.51
7544.53
7544.55
7544.58
7544.6
7544.62
7544.64
7544.66
7544.67
7544.69
7544.71
7544.73
7544.75
7544.77
7544.79
7544.8
7544.82
7544.84
7544.85
7544.87
7544.89
7544.9
7544.92
7544.93
7544.95
7544.96
7544.98
7544.99
7545.01
7545.02
7545.04
7545.05
7545.06
7545.08
7545.09
7545.1
7545.11
7545.13
7545.14
7545.15
7545.16
7545.17
7545.18
7545.19
7545.2
7545.21
7545.22
7545.23
7545.24
7545.25
7545.26
7545.27
7545.28
7545.29
7545.3
8091.45
8086.21
8080.65
8076.38
8072.71
8068.91
8064.7
8060.01
8055.24
8050.53
8045.69
8040.65
8035.47
8030.16
8024.73
8019.17
8013.48
8007.67
8001.74
7995.69
7989.53
7983.26
7976.88
7970.39
7963.79
7957.1
7950.32
7943.45
7936.46
7929.4
7922.28
7915.05
7907.76
7900.4
7892.97
7885.48
7877.93
7870.3
7862.64
7854.93
7847.17
7839.38
7831.54
7823.67
7815.78
7807.87
7799.95
7792.01
7784.06
7776.11
7768.17
7760.23
7752.3
7744.4
7736.51
7728.65
7720.83
7713.04
7705.3
7697.61
7689.97
7682.38
7674.86
7667.41
7660.05
7652.77
7645.56
7638.46
7631.47
7624.58
7617.8
7611.15
7604.62
7598.22
7591.93
7585.76
7579.66
7573.64
7567.61
7561.49
7555.34
7549.24
7543.66
7538.97
7533.25
7522.56
7516.74
7510.05
7504.2
7497.86
7492.04
7486.09
7479.85
7474
7468.2
7462.52
7456.99
7451.56
7446.22
7440.99
7435.85
7430.84
7425.94
7421.15
7416.6
7412.03
7407.45
7403.11
7398.92
7394.87
7390.95
7387.17
7383.5
7379.95
7376.52
7373.22
7370.02
7366.93
7363.92
7361.03
7358.23
7355.52
7352.97
7350.43
7347.9
7345.52
7343.22
7341.02
7338.91
7336.88
7334.93
7333.05
7331.25
7329.52
7327.86
7326.26
7324.72
7323.25
7321.83
7320.46
7319.15
7317.89
7316.67
7315.5
7314.37
7313.28
7312.23
7311.21
7310.23
7309.28
7308.37
7307.48
7306.62
7305.78
7304.98
7304.19
7303.43
7302.68
7301.96
7301.25
7300.56
7299.88
7299.22
7298.57
7297.93
7297.31
7296.69
7296.09
7295.49
7294.9
7294.32
7293.74
7293.18
7292.61
7292.06
7291.51
7290.96
7290.43
7289.9
7289.38
7288.86
7288.35
7287.85
7287.36
7286.88
7286.41
7285.95
7285.5
7285.06
7284.64
7284.22
7283.82
7283.44
7283.07
7282.71
7282.37
7282.04
7281.73
7281.44
7281.17
7280.91
7280.67
7280.46
7280.26
7280.07
7279.91
7279.77
7279.65
7279.55
7279.47
7279.4
7279.37
7279.34
7279.34
7279.36
7279.4
7279.46
7279.54
7279.63
7279.75
7279.88
7280.03
7280.2
7280.39
7280.59
7280.81
7281.04
7281.29
7281.55
7281.83
7282.11
7282.42
7282.73
7283.05
7283.39
7283.73
7284.09
7284.45
7284.83
7285.21
7285.6
7285.99
7286.39
7286.8
7287.21
7287.63
7288.05
7288.48
7288.91
7289.35
7289.78
7290.22
7290.67
7291.11
7291.56
7292.01
7292.46
7292.91
7293.36
7293.81
7294.27
7294.72
7295.18
7295.64
7296.09
7296.55
7297.01
7297.46
7297.92
7298.38
7298.83
7299.29
7299.75
7300.2
7300.66
7301.11
7301.56
7302.02
7302.47
7302.92
7303.37
7303.82
7304.27
7304.72
7305.16
7305.61
7306.06
7306.5
7306.94
7307.38
7307.82
7308.26
7308.7
7309.14
7309.58
7310.01
7310.45
7310.88
7311.31
7311.74
7312.17
7312.59
7313.02
7313.45
7313.87
7314.29
7314.71
7315.13
7315.55
7315.96
7316.38
7316.79
7317.2
7317.61
7318.02
7318.43
7318.83
7319.24
7319.64
7320.04
7320.44
7320.83
7321.23
7321.62
7322.01
7322.4
7322.78
7323.17
7323.55
7323.93
7324.3
7324.68
7325.05
7325.42
7325.79
7326.15
7326.51
7326.87
7327.23
7327.58
7327.93
7328.28
7328.63
7328.97
7329.31
7329.64
7329.97
7330.3
7330.63
7330.95
7331.27
7331.58
7331.89
7332.2
7332.51
7332.81
7333.1
7333.4
7333.69
7333.97
7334.25
7334.53
7334.81
7335.08
7335.35
7335.61
7335.87
7336.13
7336.38
7336.63
7336.87
7337.11
7337.35
7337.58
7337.81
7338.04
7338.26
7338.48
7338.7
7338.91
7339.12
7339.32
7339.52
7339.72
7339.91
7340.11
7340.29
7340.48
7340.66
7340.84
7341.01
7341.18
7341.35
7341.51
7341.68
7341.83
7341.99
7342.14
7342.29
7342.44
7342.58
7342.73
7342.86
7343
7343.13
7343.26
7343.39
7343.52
7343.64
7343.76
7343.88
7344
7344.11
7344.22
7344.33
7344.44
7344.54
7344.64
7344.74
7344.84
7344.93
7345.03
7345.12
7345.21
7345.3
7345.38
7345.46
7345.54
7345.62
7345.7
7345.77
7345.85
7345.92
7345.99
7346.06
7346.13
7346.19
7346.26
7346.32
7346.39
7346.45
7346.51
7346.57
7346.62
7346.68
7346.73
7346.79
7346.84
7346.89
7346.94
7346.99
7347.04
7347.08
7347.13
7347.17
7347.22
7347.26
7347.3
7347.34
7347.38
7347.42
7347.45
7347.51
7347.54
7347.56
7347.59
7347.61
7347.64
7347.67
7347.69
7347.72
7347.74
7347.76
7347.79
7347.81
7347.84
7347.87
7347.89
7347.92
7347.94
7347.97
7347.99
7348.02
7348.04
7348.06
7348.09
7348.11
7348.13
7348.16
7348.18
7348.2
7348.22
7348.25
7348.27
7348.29
7348.31
7348.33
7348.35
7348.38
7348.4
7348.42
7348.44
7348.46
7348.48
7348.49
7348.51
7348.53
7348.55
7348.57
7348.59
7348.6
7348.62
7348.64
7348.66
7348.67
7348.69
7348.7
7348.72
7348.74
7348.75
7348.77
7348.78
7348.79
7348.81
7348.82
7348.84
7348.85
7348.86
7348.88
7348.89
7348.9
7348.91
7348.93
7348.94
7348.95
7348.96
7348.97
7348.98
7348.99
7349
7349.01
7349.02
7349.03
7349.04
7349.05
7349.06
7349.07
7349.08
7349.09
7349.1
7896.36
7891.1
7885.51
7881.22
7877.54
7873.73
7869.5
7864.8
7860.01
7855.28
7850.42
7845.36
7840.16
7834.84
7829.38
7823.8
7818.1
7812.27
7806.32
7800.25
7794.07
7787.79
7781.38
7774.86
7768.25
7761.54
7754.74
7747.84
7740.83
7733.74
7726.59
7719.34
7712.01
7704.62
7697.15
7689.63
7682.04
7674.38
7666.68
7658.93
7651.15
7643.33
7635.45
7627.54
7619.61
7611.68
7603.73
7595.75
7587.76
7579.78
7571.8
7563.83
7555.87
7547.92
7540
7532.1
7524.24
7516.42
7508.64
7500.91
7493.22
7485.58
7478.01
7470.53
7463.12
7455.77
7448.5
7441.34
7434.28
7427.3
7420.43
7413.66
7407
7400.45
7393.99
7387.63
7381.34
7375.1
7368.89
7362.69
7356.54
7350.4
7344.17
7337.84
7331.46
7325.59
7320.43
7315.78
7310.48
7300.61
7294.94
7288.85
7282.81
7277.1
7271.4
7265.43
7259.85
7254.36
7249
7243.77
7238.65
7233.62
7228.72
7223.92
7219.25
7214.7
7210.28
7206.02
7201.96
7197.92
7193.92
7190.13
7186.46
7182.91
7179.49
7176.18
7172.99
7169.9
7166.92
7164.03
7161.25
7158.55
7155.97
7153.46
7151.05
7148.78
7146.52
7144.28
7142.19
7140.17
7138.23
7136.37
7134.59
7132.88
7131.23
7129.65
7128.14
7126.68
7125.27
7123.92
7122.63
7121.38
7120.18
7119.02
7117.91
7116.83
7115.8
7114.8
7113.83
7112.89
7111.99
7111.11
7110.26
7109.44
7108.64
7107.86
7107.11
7106.37
7105.65
7104.95
7104.27
7103.59
7102.94
7102.29
7101.66
7101.04
7100.43
7099.83
7099.24
7098.65
7098.07
7097.5
7096.94
7096.37
7095.82
7095.27
7094.73
7094.19
7093.66
7093.14
7092.62
7092.11
7091.61
7091.12
7090.64
7090.17
7089.7
7089.25
7088.81
7088.38
7087.97
7087.57
7087.18
7086.8
7086.44
7086.1
7085.77
7085.46
7085.17
7084.89
7084.63
7084.39
7084.17
7083.97
7083.79
7083.63
7083.48
7083.36
7083.26
7083.18
7083.12
7083.08
7083.05
7083.05
7083.07
7083.11
7083.17
7083.25
7083.35
7083.47
7083.6
7083.75
7083.92
7084.11
7084.31
7084.53
7084.77
7085.02
7085.28
7085.56
7085.85
7086.15
7086.47
7086.8
7087.13
7087.48
7087.84
7088.21
7088.58
7088.96
7089.35
7089.75
7090.15
7090.56
7090.98
7091.4
7091.82
7092.25
7092.68
7093.12
7093.56
7094
7094.44
7094.89
7095.33
7095.78
7096.23
7096.69
7097.14
7097.6
7098.05
7098.51
7098.96
7099.42
7099.88
7100.33
7100.79
7101.25
7101.7
7102.16
7102.62
7103.08
7103.53
7103.99
7104.44
7104.9
7105.35
7105.8
7106.26
7106.71
7107.16
7107.61
7108.06
7108.51
7108.95
7109.4
7109.85
7110.29
7110.73
7111.17
7111.62
7112.06
7112.49
7112.93
7113.37
7113.8
7114.24
7114.67
7115.1
7115.53
7115.96
7116.39
7116.82
7117.24
7117.66
7118.09
7118.51
7118.93
7119.34
7119.76
7120.18
7120.59
7121
7121.41
7121.82
7122.23
7122.63
7123.04
7123.44
7123.84
7124.24
7124.63
7125.03
7125.42
7125.81
7126.2
7126.59
7126.97
7127.35
7127.73
7128.11
7128.49
7128.86
7129.23
7129.6
7129.96
7130.33
7130.69
7131.04
7131.4
7131.75
7132.1
7132.44
7132.78
7133.12
7133.46
7133.79
7134.12
7134.44
7134.77
7135.08
7135.4
7135.71
7136.02
7136.32
7136.63
7136.92
7137.22
7137.51
7137.79
7138.08
7138.35
7138.63
7138.9
7139.17
7139.43
7139.69
7139.95
7140.2
7140.45
7140.69
7140.93
7141.17
7141.41
7141.64
7141.86
7142.08
7142.3
7142.52
7142.73
7142.94
7143.14
7143.34
7143.54
7143.74
7143.93
7144.11
7144.3
7144.48
7144.66
7144.83
7145
7145.17
7145.33
7145.5
7145.65
7145.81
7145.96
7146.11
7146.26
7146.4
7146.54
7146.68
7146.82
7146.95
7147.08
7147.21
7147.34
7147.46
7147.58
7147.7
7147.81
7147.93
7148.04
7148.15
7148.25
7148.35
7148.46
7148.56
7148.65
7148.75
7148.85
7148.93
7149.02
7149.1
7149.19
7149.27
7149.35
7149.43
7149.51
7149.58
7149.66
7149.73
7149.8
7149.87
7149.94
7150
7150.07
7150.13
7150.2
7150.26
7150.32
7150.37
7150.43
7150.49
7150.54
7150.6
7150.65
7150.7
7150.75
7150.8
7150.85
7150.89
7150.94
7150.98
7151.02
7151.06
7151.11
7151.14
7151.21
7151.23
7151.26
7151.29
7151.32
7151.35
7151.38
7151.41
7151.44
7151.46
7151.49
7151.52
7151.54
7151.57
7151.59
7151.62
7151.64
7151.67
7151.69
7151.72
7151.74
7151.77
7151.79
7151.82
7151.84
7151.87
7151.89
7151.91
7151.94
7151.96
7151.98
7152.01
7152.03
7152.05
7152.07
7152.09
7152.11
7152.14
7152.16
7152.18
7152.2
7152.22
7152.24
7152.26
7152.28
7152.3
7152.32
7152.33
7152.35
7152.37
7152.39
7152.41
7152.42
7152.44
7152.46
7152.47
7152.49
7152.51
7152.52
7152.54
7152.55
7152.57
7152.58
7152.6
7152.61
7152.62
7152.64
7152.65
7152.67
7152.68
7152.69
7152.7
7152.72
7152.73
7152.74
7152.75
7152.76
7152.77
7152.78
7152.79
7152.81
7152.82
7152.83
7152.84
7152.84
7152.85
7152.86
7152.87
7152.88
7152.89
7152.9
7701.63
7696.34
7690.72
7686.41
7682.7
7678.88
7674.62
7669.92
7665.11
7660.34
7655.45
7650.37
7645.14
7639.79
7634.32
7628.71
7622.98
7617.13
7611.14
7605.05
7598.85
7592.53
7586.09
7579.54
7572.9
7566.16
7559.33
7552.38
7545.33
7538.21
7531.02
7523.74
7516.37
7508.92
7501.41
7493.84
7486.21
7478.52
7470.77
7462.97
7455.13
7447.26
7439.35
7431.4
7423.42
7415.43
7407.43
7399.41
7391.38
7383.34
7375.32
7367.3
7359.29
7351.3
7343.33
7335.39
7327.47
7319.6
7311.77
7303.98
7296.24
7288.55
7280.93
7273.38
7265.89
7258.48
7251.15
7243.91
7236.76
7229.69
7222.72
7215.85
7209.07
7202.38
7195.78
7189.26
7182.82
7176.44
7170.11
7163.82
7157.58
7151.37
7145.18
7139.05
7132.98
7126.94
7120.96
7115.05
7109.23
7103.92
7099.5
7094.32
7084.88
7079.39
7073.67
7067.93
7062.53
7057.14
7051.51
7046.25
7041.1
7036.07
7031.19
7026.42
7021.75
7017.22
7012.82
7008.54
7004.41
7000.39
6996.53
6992.83
6989.2
6985.6
6982.18
6978.88
6975.7
6972.63
6969.66
6966.8
6964.04
6961.37
6958.81
6956.33
6953.93
6951.64
6949.43
6947.3
6945.3
6943.33
6941.37
6939.52
6937.77
6936.07
6934.45
6932.89
6931.41
6929.97
6928.59
6927.27
6925.99
6924.77
6923.59
6922.45
6921.36
6920.3
6919.28
6918.3
6917.35
6916.43
6915.54
6914.68
6913.85
6913.04
6912.25
6911.49
6910.74
6910.01
6909.31
6908.62
6907.94
6907.28
6906.63
6905.99
6905.37
6904.75
6904.15
6903.55
6902.96
6902.38
6901.81
6901.24
6900.67
6900.12
6899.56
6899.02
6898.47
6897.94
6897.41
6896.88
6896.37
6895.86
6895.36
6894.86
6894.38
6893.9
6893.44
6892.98
6892.54
6892.11
6891.69
6891.29
6890.89
6890.52
6890.15
6889.81
6889.48
6889.16
6888.87
6888.59
6888.33
6888.08
6887.86
6887.66
6887.47
6887.31
6887.17
6887.04
6886.94
6886.86
6886.79
6886.75
6886.73
6886.73
6886.75
6886.79
6886.85
6886.93
6887.03
6887.15
6887.29
6887.44
6887.61
6887.8
6888.01
6888.23
6888.47
6888.72
6888.99
6889.27
6889.56
6889.87
6890.19
6890.52
6890.86
6891.21
6891.57
6891.94
6892.32
6892.7
6893.09
6893.49
6893.9
6894.31
6894.73
6895.15
6895.58
6896.01
6896.44
6896.88
6897.32
6897.76
6898.21
6898.65
6899.1
6899.55
6900
6900.46
6900.91
6901.37
6901.82
6902.28
6902.74
6903.19
6903.65
6904.11
6904.57
6905.03
6905.48
6905.94
6906.4
6906.85
6907.31
6907.77
6908.22
6908.68
6909.13
6909.59
6910.04
6910.49
6910.94
6911.39
6911.84
6912.29
6912.74
6913.18
6913.63
6914.08
6914.52
6914.96
6915.4
6915.84
6916.28
6916.72
6917.16
6917.59
6918.03
6918.46
6918.89
6919.32
6919.75
6920.18
6920.61
6921.03
6921.46
6921.88
6922.3
6922.72
6923.14
6923.56
6923.97
6924.39
6924.8
6925.21
6925.62
6926.03
6926.43
6926.84
6927.24
6927.64
6928.04
6928.44
6928.83
6929.23
6929.62
6930.01
6930.39
6930.78
6931.16
6931.54
6931.92
6932.3
6932.67
6933.04
6933.41
6933.78
6934.14
6934.5
6934.86
6935.21
6935.56
6935.91
6936.26
6936.6
6936.94
6937.28
6937.61
6937.94
6938.27
6938.59
6938.91
6939.22
6939.54
6939.84
6940.15
6940.45
6940.75
6941.04
6941.33
6941.62
6941.9
6942.18
6942.46
6942.73
6943
6943.26
6943.52
6943.78
6944.03
6944.28
6944.52
6944.76
6945
6945.23
6945.46
6945.69
6945.91
6946.13
6946.35
6946.56
6946.77
6946.97
6947.17
6947.37
6947.56
6947.75
6947.94
6948.13
6948.31
6948.48
6948.66
6948.83
6949
6949.16
6949.32
6949.48
6949.64
6949.79
6949.94
6950.08
6950.23
6950.37
6950.51
6950.64
6950.78
6950.91
6951.03
6951.16
6951.28
6951.4
6951.52
6951.63
6951.75
6951.86
6951.96
6952.07
6952.18
6952.28
6952.38
6952.47
6952.56
6952.65
6952.74
6952.83
6952.92
6953
6953.08
6953.16
6953.24
6953.32
6953.39
6953.47
6953.54
6953.61
6953.68
6953.75
6953.81
6953.88
6953.94
6954.01
6954.07
6954.13
6954.19
6954.24
6954.3
6954.35
6954.41
6954.46
6954.51
6954.56
6954.61
6954.65
6954.7
6954.74
6954.79
6954.83
6954.89
6954.93
6954.95
6954.98
6955.01
6955.05
6955.08
6955.11
6955.14
6955.17
6955.2
6955.23
6955.26
6955.28
6955.31
6955.34
6955.36
6955.39
6955.42
6955.44
6955.47
6955.49
6955.52
6955.54
6955.57
6955.59
6955.62
6955.64
6955.67
6955.69
6955.71
6955.74
6955.76
6955.78
6955.81
6955.83
6955.85
6955.87
6955.9
6955.92
6955.94
6955.96
6955.98
6956
6956.02
6956.04
6956.06
6956.08
6956.1
6956.12
6956.14
6956.15
6956.17
6956.19
6956.21
6956.23
6956.24
6956.26
6956.28
6956.29
6956.31
6956.32
6956.34
6956.35
6956.37
6956.38
6956.4
6956.41
6956.43
6956.44
6956.45
6956.47
6956.48
6956.49
6956.51
6956.52
6956.53
6956.54
6956.55
6956.56
6956.58
6956.59
6956.6
6956.61
6956.62
6956.63
6956.64
6956.65
6956.66
6956.66
6956.67
6956.68
6956.69
6956.7
7507.29
7501.97
7496.31
7491.96
7488.23
7484.39
7480.11
7475.36
7470.53
7465.73
7460.81
7455.71
7450.45
7445.06
7439.54
7433.91
7428.15
7422.26
7416.25
7410.11
7403.86
7397.5
7391.02
7384.43
7377.75
7370.97
7364.09
7357.1
7350.01
7342.84
7335.58
7328.25
7320.84
7313.35
7305.79
7298.15
7290.46
7282.72
7274.91
7267.06
7259.15
7251.22
7243.26
7235.25
7227.21
7219.16
7211.09
7203.01
7194.92
7186.83
7178.74
7170.66
7162.59
7154.53
7146.51
7138.5
7130.52
7122.58
7114.69
7106.83
7099.02
7091.27
7083.58
7075.95
7068.39
7060.9
7053.5
7046.17
7038.92
7031.76
7024.7
7017.72
7010.83
7004.02
6997.3
6990.66
6984.09
6977.6
6971.17
6964.8
6958.48
6952.21
6946
6939.85
6933.76
6927.73
6921.78
6915.94
6910.17
6904.41
6898.68
6892.99
6887.8
6883.5
6878.54
6869.6
6864.32
6859.02
6853.61
6848.54
6843.48
6838.22
6833.32
6828.55
6823.9
6819.41
6815.02
6810.75
6806.64
6802.64
6798.78
6795.05
6791.44
6787.95
6784.63
6781.37
6778.16
6775.11
6772.16
6769.33
6766.6
6763.96
6761.42
6758.97
6756.62
6754.36
6752.18
6750.08
6748.07
6746.14
6744.28
6742.54
6740.82
6739.12
6737.52
6735.99
6734.53
6733.13
6731.78
6730.49
6729.24
6728.04
6726.89
6725.78
6724.72
6723.68
6722.69
6721.73
6720.8
6719.9
6719.03
6718.19
6717.37
6716.58
6715.81
6715.06
6714.33
6713.61
6712.92
6712.24
6711.58
6710.93
6710.29
6709.66
6709.04
6708.44
6707.84
6707.25
6706.67
6706.09
6705.52
6704.95
6704.39
6703.84
6703.29
6702.74
6702.2
6701.66
6701.13
6700.61
6700.09
6699.58
6699.08
6698.58
6698.1
6697.62
6697.15
6696.69
6696.25
6695.81
6695.39
6694.98
6694.58
6694.2
6693.83
6693.48
6693.15
6692.83
6692.53
6692.25
6691.99
6691.74
6691.52
6691.31
6691.12
6690.96
6690.81
6690.69
6690.58
6690.5
6690.44
6690.4
6690.38
6690.38
6690.4
6690.44
6690.5
6690.58
6690.68
6690.8
6690.94
6691.1
6691.27
6691.47
6691.68
6691.9
6692.14
6692.4
6692.67
6692.95
6693.25
6693.56
6693.88
6694.22
6694.56
6694.92
6695.28
6695.65
6696.04
6696.42
6696.82
6697.22
6697.63
6698.05
6698.47
6698.89
6699.32
6699.75
6700.19
6700.63
6701.07
6701.51
6701.96
6702.41
6702.86
6703.31
6703.77
6704.22
6704.68
6705.13
6705.59
6706.04
6706.5
6706.96
6707.42
6707.88
6708.34
6708.8
6709.25
6709.71
6710.17
6710.63
6711.08
6711.54
6712
6712.45
6712.91
6713.36
6713.81
6714.27
6714.72
6715.17
6715.62
6716.07
6716.52
6716.96
6717.41
6717.86
6718.3
6718.74
6719.19
6719.63
6720.07
6720.51
6720.94
6721.38
6721.81
6722.25
6722.68
6723.11
6723.54
6723.97
6724.4
6724.83
6725.25
6725.67
6726.09
6726.52
6726.93
6727.35
6727.77
6728.18
6728.6
6729.01
6729.42
6729.83
6730.23
6730.64
6731.04
6731.44
6731.84
6732.24
6732.64
6733.03
6733.42
6733.81
6734.2
6734.59
6734.97
6735.35
6735.73
6736.11
6736.48
6736.86
6737.23
6737.59
6737.96
6738.32
6738.68
6739.03
6739.39
6739.74
6740.08
6740.43
6740.77
6741.1
6741.44
6741.77
6742.09
6742.42
6742.74
6743.05
6743.37
6743.68
6743.98
6744.28
6744.58
6744.88
6745.17
6745.45
6745.74
6746.02
6746.29
6746.56
6746.83
6747.1
6747.36
6747.61
6747.87
6748.11
6748.36
6748.6
6748.84
6749.07
6749.3
6749.53
6749.75
6749.97
6750.18
6750.4
6750.6
6750.81
6751.01
6751.21
6751.4
6751.59
6751.78
6751.96
6752.14
6752.32
6752.49
6752.66
6752.83
6752.99
6753.15
6753.31
6753.47
6753.62
6753.77
6753.92
6754.06
6754.2
6754.34
6754.47
6754.6
6754.74
6754.86
6754.99
6755.11
6755.23
6755.34
6755.46
6755.57
6755.68
6755.8
6755.9
6756
6756.09
6756.19
6756.28
6756.38
6756.47
6756.56
6756.65
6756.73
6756.81
6756.9
6756.98
6757.06
6757.13
6757.21
6757.28
6757.36
6757.43
6757.49
6757.56
6757.63
6757.69
6757.76
6757.82
6757.88
6757.94
6758
6758.06
6758.11
6758.17
6758.22
6758.27
6758.32
6758.37
6758.43
6758.47
6758.54
6758.57
6758.6
6758.63
6758.67
6758.7
6758.74
6758.77
6758.81
6758.84
6758.87
6758.9
6758.94
6758.97
6758.99
6759.02
6759.05
6759.08
6759.11
6759.14
6759.16
6759.19
6759.22
6759.24
6759.27
6759.3
6759.32
6759.35
6759.37
6759.4
6759.42
6759.45
6759.47
6759.49
6759.52
6759.54
6759.56
6759.59
6759.61
6759.63
6759.66
6759.68
6759.7
6759.72
6759.74
6759.76
6759.78
6759.8
6759.82
6759.84
6759.86
6759.88
6759.9
6759.92
6759.94
6759.96
6759.98
6759.99
6760.01
6760.03
6760.05
6760.06
6760.08
6760.09
6760.11
6760.13
6760.14
6760.16
6760.17
6760.19
6760.2
6760.22
6760.23
6760.24
6760.26
6760.27
6760.28
6760.3
6760.31
6760.32
6760.33
6760.34
6760.36
6760.37
6760.38
6760.39
6760.4
6760.41
6760.42
6760.43
6760.44
6760.45
6760.46
6760.47
6760.48
6760.48
6760.49
6760.5
7313.33
7307.98
7302.27
7297.87
7294.12
7290.26
7285.95
7281.19
7276.32
7271.46
7266.5
7261.37
7256.09
7250.66
7245.09
7239.4
7233.6
7227.68
7221.62
7215.45
7209.15
7202.74
7196.21
7189.57
7182.82
7175.98
7169.06
7162.01
7154.87
7147.64
7140.33
7132.93
7125.45
7117.91
7110.29
7102.59
7094.82
7087.01
7079.13
7071.21
7063.24
7055.24
7047.19
7039.1
7031
7022.88
7014.74
7006.59
6998.43
6990.25
6982.08
6973.92
6965.77
6957.65
6949.54
6941.46
6933.4
6925.38
6917.41
6909.47
6901.57
6893.74
6885.96
6878.26
6870.61
6863.04
6855.55
6848.14
6840.8
6833.54
6826.38
6819.3
6812.3
6805.39
6798.56
6791.82
6785.15
6778.56
6772.04
6765.58
6759.2
6752.88
6746.62
6740.43
6734.32
6728.29
6722.33
6716.45
6710.65
6704.91
6699.27
6693.7
6688.14
6682.62
6677.12
6672.11
6667.98
6663.29
6654.88
6649.85
6645.01
6639.95
6635.27
6630.58
6625.73
6621.22
6616.86
6612.62
6608.55
6604.59
6600.77
6597.05
6593.48
6590.01
6586.67
6583.43
6580.32
6577.35
6574.46
6571.62
6568.92
6566.32
6563.81
6561.41
6559.09
6556.87
6554.73
6552.68
6550.71
6548.81
6546.99
6545.24
6543.57
6541.96
6540.43
6538.99
6537.57
6536.17
6534.85
6533.58
6532.37
6531.21
6530.09
6529.01
6527.97
6526.97
6526
6525.07
6524.16
6523.29
6522.45
6521.63
6520.83
6520.06
6519.31
6518.58
6517.87
6517.17
6516.49
6515.83
6515.18
6514.54
6513.91
6513.3
6512.69
6512.09
6511.5
6510.92
6510.34
6509.77
6509.2
6508.64
6508.09
6507.53
6506.99
6506.44
6505.9
6505.37
6504.84
6504.31
6503.79
6503.28
6502.78
6502.28
6501.79
6501.31
6500.83
6500.37
6499.92
6499.48
6499.06
6498.64
6498.24
6497.85
6497.48
6497.13
6496.79
6496.47
6496.16
6495.88
6495.61
6495.36
6495.13
6494.92
6494.73
6494.56
6494.42
6494.29
6494.18
6494.1
6494.04
6494
6493.98
6493.98
6494
6494.04
6494.11
6494.19
6494.29
6494.42
6494.56
6494.72
6494.9
6495.09
6495.31
6495.54
6495.78
6496.04
6496.32
6496.61
6496.91
6497.22
6497.55
6497.89
6498.24
6498.6
6498.97
6499.35
6499.73
6500.12
6500.53
6500.93
6501.34
6501.76
6502.19
6502.61
6503.04
6503.48
6503.92
6504.36
6504.81
6505.25
6505.7
6506.15
6506.61
6507.06
6507.51
6507.97
6508.43
6508.88
6509.34
6509.8
6510.26
6510.72
6511.18
6511.64
6512.1
6512.56
6513.02
6513.48
6513.93
6514.39
6514.85
6515.31
6515.76
6516.22
6516.68
6517.13
6517.58
6518.04
6518.49
6518.94
6519.39
6519.84
6520.29
6520.74
6521.19
6521.63
6522.08
6522.52
6522.96
6523.41
6523.85
6524.29
6524.72
6525.16
6525.6
6526.03
6526.46
6526.9
6527.33
6527.76
6528.19
6528.61
6529.04
6529.46
6529.88
6530.31
6530.73
6531.14
6531.56
6531.98
6532.39
6532.8
6533.21
6533.62
6534.03
6534.44
6534.84
6535.24
6535.64
6536.04
6536.44
6536.84
6537.23
6537.62
6538.01
6538.4
6538.78
6539.17
6539.55
6539.92
6540.3
6540.67
6541.04
6541.41
6541.78
6542.14
6542.5
6542.86
6543.21
6543.56
6543.91
6544.25
6544.59
6544.93
6545.27
6545.6
6545.93
6546.25
6546.57
6546.89
6547.2
6547.51
6547.82
6548.12
6548.42
6548.72
6549.01
6549.3
6549.58
6549.86
6550.14
6550.41
6550.68
6550.94
6551.2
6551.46
6551.71
6551.96
6552.2
6552.44
6552.68
6552.92
6553.15
6553.37
6553.59
6553.81
6554.03
6554.24
6554.45
6554.65
6554.85
6555.05
6555.24
6555.43
6555.62
6555.8
6555.98
6556.16
6556.33
6556.5
6556.67
6556.83
6556.99
6557.15