/*--------------------------------*- C++ -*----------------------------------*\
| =========                 |                                                 |
| \\      /  F ield         | OpenFOAM: The Open Source CFD Toolbox           |
|  \\    /   O peration     | Version:  v2006                                 |
|   \\  /    A nd           | Website:  www.openfoam.com                      |
|    \\/     M anipulation  |                                                 |
\*---------------------------------------------------------------------------*/
FoamFile
{
    version     2.0;
    format      ascii;
    class       surfaceScalarField;
    location    "2.6";
    object      phi;
}
// * * * * * * * * * * * * * * * * * * * * * * * * * * * * * * * * * * * * * //

dimensions      [0 3 -1 0 0 0 0];
oriented        oriented;


internalField   nonuniform List<scalar> 
65390
(
0.00010865
3.28083e-07
0.000108244
4.04753e-07
0.000107859
3.84017e-07
0.000107491
3.67555e-07
0.00010716
3.30378e-07
0.000106832
3.27769e-07
0.000106473
3.58851e-07
0.000106065
4.08876e-07
0.000105627
4.37811e-07
0.000105126
5.01549e-07
0.000104583
5.44787e-07
0.000104001
5.82534e-07
0.000103389
6.13657e-07
0.000102719
6.7153e-07
0.000101973
7.47277e-07
0.000101186
7.88372e-07
0.000100385
8.03308e-07
9.95776e-05
8.08847e-07
9.88406e-05
7.3853e-07
9.80478e-05
7.94599e-07
9.70242e-05
1.02541e-06
9.58261e-05
1.2e-06
9.47254e-05
1.10249e-06
9.38321e-05
8.9498e-07
9.29265e-05
9.07179e-07
9.18254e-05
1.1027e-06
9.04838e-05
1.34307e-06
8.92619e-05
1.22331e-06
8.82753e-05
9.87968e-07
8.70886e-05
1.18782e-06
8.56796e-05
1.41006e-06
8.44083e-05
1.27233e-06
8.32448e-05
1.16432e-06
8.21617e-05
1.08387e-06
8.0779e-05
1.38335e-06
7.92227e-05
1.5568e-06
7.78973e-05
1.3258e-06
7.67664e-05
1.1312e-06
7.55669e-05
1.19972e-06
7.42215e-05
1.34558e-06
7.25987e-05
1.62283e-06
7.10137e-05
1.58502e-06
6.9817e-05
1.1966e-06
6.87078e-05
1.109e-06
6.73621e-05
1.3454e-06
6.588e-05
1.4818e-06
6.45192e-05
1.3605e-06
6.32863e-05
1.23261e-06
6.19432e-05
1.34276e-06
6.05126e-05
1.43025e-06
5.91663e-05
1.34602e-06
5.7978e-05
1.18794e-06
5.6731e-05
1.24677e-06
5.53624e-05
1.36828e-06
5.40439e-05
1.31831e-06
5.28537e-05
1.19006e-06
5.15565e-05
1.29713e-06
5.01216e-05
1.43493e-06
4.85849e-05
1.53678e-06
4.71303e-05
1.45478e-06
4.58926e-05
1.238e-06
4.46897e-05
1.20325e-06
4.32522e-05
1.43801e-06
4.17286e-05
1.52421e-06
4.03142e-05
1.41513e-06
3.91131e-05
1.20184e-06
3.79538e-05
1.16022e-06
3.6619e-05
1.33572e-06
3.52673e-05
1.35267e-06
3.39595e-05
1.30874e-06
3.25457e-05
1.41477e-06
3.10284e-05
1.51831e-06
2.95464e-05
1.48279e-06
2.80722e-05
1.47504e-06
2.61923e-05
1.88071e-06
2.39042e-05
2.28874e-06
2.09093e-05
2.99546e-06
1.63313e-05
4.57834e-06
1.24586e-05
3.87289e-06
1.09514e-05
1.50723e-06
1.00561e-05
8.9521e-07
9.96606e-06
8.99706e-08
9.49289e-06
4.73111e-07
9.31334e-06
1.79458e-07
9.2864e-06
2.68476e-08
8.90205e-06
3.84271e-07
8.54414e-06
3.57834e-07
8.15423e-06
3.89823e-07
7.85508e-06
2.99069e-07
7.51875e-06
3.36204e-07
7.27946e-06
2.39111e-07
7.07949e-06
1.99792e-07
6.85401e-06
2.25306e-07
6.60937e-06
2.44429e-07
6.39849e-06
2.1065e-07
6.22447e-06
1.73798e-07
6.13823e-06
8.60233e-08
6.08447e-06
5.35467e-08
6.04157e-06
4.26868e-08
5.95416e-06
8.72228e-08
5.7907e-06
1.63278e-07
5.59028e-06
2.00244e-07
5.36177e-06
2.28325e-07
5.16639e-06
1.95188e-07
4.95983e-06
2.06356e-07
4.74841e-06
2.11184e-07
4.5659e-06
1.82278e-07
4.41404e-06
1.51622e-07
4.25101e-06
1.62771e-07
4.07899e-06
1.71764e-07
3.92112e-06
1.57617e-07
3.76751e-06
1.53358e-07
3.64153e-06
1.25755e-07
3.54142e-06
9.98875e-08
3.48898e-06
5.22454e-08
3.46903e-06
1.97677e-08
3.48255e-06
-1.36952e-08
3.46137e-06
2.102e-08
3.3959e-06
6.53226e-08
3.32608e-06
6.96722e-08
3.22321e-06
1.02718e-07
3.12668e-06
9.63708e-08
3.00809e-06
1.18433e-07
2.89843e-06
1.09502e-07
2.81021e-06
8.80548e-08
2.73178e-06
7.82546e-08
2.66391e-06
6.77005e-08
2.58534e-06
7.83931e-08
2.49944e-06
8.57319e-08
2.43001e-06
6.92557e-08
2.37865e-06
5.11876e-08
2.31491e-06
6.35757e-08
2.24758e-06
6.71762e-08
2.18421e-06
6.32226e-08
2.13518e-06
4.88883e-08
2.09075e-06
4.42961e-08
2.03143e-06
5.91915e-08
1.97375e-06
5.75567e-08
1.92322e-06
5.04163e-08
1.88264e-06
4.0476e-08
1.82629e-06
5.62406e-08
1.77121e-06
5.49796e-08
1.72136e-06
4.97509e-08
1.6715e-06
4.97671e-08
1.61536e-06
5.60491e-08
1.56133e-06
5.39402e-08
1.51517e-06
4.60729e-08
1.47085e-06
4.4234e-08
1.41316e-06
5.76069e-08
1.35675e-06
5.6329e-08
1.2993e-06
5.73722e-08
1.23984e-06
5.93897e-08
1.19533e-06
4.44356e-08
1.15308e-06
4.21698e-08
1.09429e-06
5.87267e-08
1.03006e-06
6.41601e-08
9.71603e-07
5.83913e-08
9.22944e-07
4.85957e-08
8.71919e-07
5.09632e-08
8.07868e-07
6.39907e-08
7.41498e-07
6.63124e-08
6.83885e-07
5.7556e-08
6.30021e-07
5.38079e-08
5.64814e-07
6.51529e-08
4.92261e-07
7.24989e-08
4.25769e-07
6.644e-08
3.64554e-07
6.11625e-08
2.96745e-07
6.77572e-08
2.21032e-07
7.56609e-08
1.434e-07
7.75804e-08
7.31296e-08
7.02181e-08
6.92304e-09
6.61542e-08
-6.90358e-08
7.59061e-08
-1.50767e-07
8.1678e-08
-2.29312e-07
7.84923e-08
-3.04347e-07
7.49812e-08
-3.78943e-07
7.45425e-08
-4.58133e-07
7.91373e-08
-5.38616e-07
8.04295e-08
-6.19496e-07
8.08276e-08
-7.00679e-07
8.11312e-08
-7.78772e-07
7.80422e-08
-8.58214e-07
7.93911e-08
-9.41097e-07
8.28331e-08
-1.02337e-06
8.22231e-08
-1.10241e-06
7.89898e-08
-1.17885e-06
7.63916e-08
-1.26028e-06
8.13851e-08
-1.34306e-06
8.27369e-08
-1.42368e-06
8.0574e-08
-1.50082e-06
7.70923e-08
-1.5803e-06
7.94341e-08
-1.66028e-06
7.99348e-08
-1.7387e-06
7.83846e-08
-1.81591e-06
7.7167e-08
-1.89155e-06
7.55908e-08
-1.96794e-06
7.63551e-08
-2.04387e-06
7.58806e-08
-2.11696e-06
7.30569e-08
-2.1869e-06
6.98975e-08
-2.2586e-06
7.16537e-08
-2.32998e-06
7.13384e-08
-2.40051e-06
7.04957e-08
-2.46817e-06
6.76217e-08
-2.53404e-06
6.58286e-08
-2.59614e-06
6.20632e-08
-2.65829e-06
6.21073e-08
-2.72228e-06
6.39496e-08
-2.78291e-06
6.05965e-08
-2.84015e-06
5.72031e-08
-2.89467e-06
5.44803e-08
-2.95103e-06
5.63266e-08
-3.00404e-06
5.29839e-08
-3.05497e-06
5.08927e-08
-3.10328e-06
4.82783e-08
-3.14812e-06
4.48035e-08
-3.19421e-06
4.60677e-08
-3.23767e-06
4.34249e-08
-3.27904e-06
4.13415e-08
-3.31936e-06
4.0287e-08
-3.35503e-06
3.56384e-08
-3.38718e-06
3.21216e-08
-3.42005e-06
3.2842e-08
-3.45146e-06
3.13898e-08
-3.48067e-06
2.91777e-08
-3.50712e-06
2.64318e-08
-3.53177e-06
2.46148e-08
-3.55392e-06
2.21274e-08
-3.57237e-06
1.84238e-08
-3.59092e-06
1.85281e-08
-3.60771e-06
1.67587e-08
-3.62259e-06
1.486e-08
-3.63506e-06
1.24407e-08
-3.64518e-06
1.01053e-08
-3.65233e-06
7.1267e-09
-3.65949e-06
7.14467e-09
-3.66568e-06
6.17458e-09
-3.66976e-06
4.06838e-09
-3.67104e-06
1.26636e-09
-3.67155e-06
4.91812e-10
-3.67046e-06
-1.10499e-09
-3.66785e-06
-2.61496e-09
-3.6638e-06
-4.06637e-09
-3.65837e-06
-5.44184e-09
-3.65153e-06
-6.86321e-09
-3.64314e-06
-8.40434e-09
-3.635e-06
-8.15048e-09
-3.62527e-06
-9.74139e-09
-3.61342e-06
-1.18598e-08
-3.60101e-06
-1.24281e-08
-3.58783e-06
-1.31815e-08
-3.57373e-06
-1.41102e-08
-3.55891e-06
-1.48381e-08
-3.54335e-06
-1.55699e-08
-3.52732e-06
-1.60335e-08
-3.51067e-06
-1.66618e-08
-3.49257e-06
-1.81072e-08
-3.47339e-06
-1.91887e-08
-3.45496e-06
-1.84453e-08
-3.43576e-06
-1.92085e-08
-3.41578e-06
-1.99883e-08
-3.39471e-06
-2.10799e-08
-3.37404e-06
-2.06736e-08
-3.35314e-06
-2.09086e-08
-3.33181e-06
-2.13387e-08
-3.31019e-06
-2.16271e-08
-3.2882e-06
-2.19916e-08
-3.26566e-06
-2.25488e-08
-3.24263e-06
-2.30363e-08
-3.21937e-06
-2.32621e-08
-3.19632e-06
-2.30545e-08
-3.17322e-06
-2.31042e-08
-3.15007e-06
-2.31473e-08
-3.12672e-06
-2.33479e-08
-3.10329e-06
-2.34327e-08
-3.07965e-06
-2.36371e-08
-3.05578e-06
-2.38738e-08
-3.03191e-06
-2.38597e-08
-3.00804e-06
-2.38641e-08
-2.98422e-06
-2.38146e-08
-2.96044e-06
-2.37803e-08
-2.93668e-06
-2.37522e-08
-2.91272e-06
-2.39532e-08
-2.88868e-06
-2.40361e-08
-2.86454e-06
-2.41285e-08
-2.84039e-06
-2.41377e-08
-2.81638e-06
-2.40033e-08
-2.79241e-06
-2.39557e-08
-2.76842e-06
-2.39864e-08
-2.74436e-06
-2.40477e-08
-2.7203e-06
-2.4045e-08
-2.69622e-06
-2.40755e-08
-2.67222e-06
-2.39856e-08
-2.64838e-06
-2.38233e-08
-2.62465e-06
-2.37208e-08
-2.60101e-06
-2.36285e-08
-2.57742e-06
-2.35773e-08
-2.55397e-06
-2.34318e-08
-2.53066e-06
-2.32974e-08
-2.50747e-06
-2.31758e-08
-2.4844e-06
-2.30555e-08
-2.46145e-06
-2.2933e-08
-2.43863e-06
-2.28026e-08
-2.41595e-06
-2.26678e-08
-2.39337e-06
-2.25638e-08
-2.37086e-06
-2.2497e-08
-2.34844e-06
-2.23969e-08
-2.32617e-06
-2.22631e-08
-2.30399e-06
-2.21608e-08
-2.28189e-06
-2.20808e-08
-2.2599e-06
-2.19768e-08
-2.23802e-06
-2.18613e-08
-2.21626e-06
-2.17507e-08
-2.1946e-06
-2.16365e-08
-2.17307e-06
-2.15208e-08
-2.15164e-06
-2.14108e-08
-2.13033e-06
-2.12984e-08
-2.10913e-06
-2.11791e-08
-2.08805e-06
-2.10663e-08
-2.06707e-06
-2.09605e-08
-2.0462e-06
-2.08593e-08
-2.02542e-06
-2.07571e-08
-2.00476e-06
-2.06487e-08
-1.9842e-06
-2.05485e-08
-1.96373e-06
-2.04536e-08
-1.94335e-06
-2.03584e-08
-1.92308e-06
-2.02577e-08
-1.90292e-06
-2.01486e-08
-1.88285e-06
-2.0049e-08
-1.86287e-06
-1.9968e-08
-1.84295e-06
-1.99048e-08
-1.82308e-06
-1.98499e-08
-1.80327e-06
-1.97991e-08
-1.78349e-06
-1.97613e-08
-1.76373e-06
-1.97479e-08
-1.74398e-06
-1.97358e-08
-1.72425e-06
-1.97151e-08
-1.70455e-06
-1.96869e-08
-1.68488e-06
-1.96496e-08
-1.66526e-06
-1.9612e-08
-1.64567e-06
-1.95735e-08
-1.62613e-06
-1.95295e-08
-1.60662e-06
-1.94883e-08
-1.58716e-06
-1.94526e-08
-1.56772e-06
-1.94219e-08
-1.54832e-06
-1.93932e-08
-1.52893e-06
-1.93719e-08
-1.50956e-06
-1.93562e-08
-1.49021e-06
-1.93432e-08
-1.47086e-06
-1.93298e-08
-1.45154e-06
-1.9309e-08
-1.43225e-06
-1.92772e-08
-1.41301e-06
-1.92302e-08
-1.39382e-06
-1.91782e-08
-1.37469e-06
-1.91194e-08
-1.35562e-06
-1.90585e-08
-1.33661e-06
-1.90015e-08
-1.31765e-06
-1.89493e-08
-1.29874e-06
-1.88992e-08
-1.27988e-06
-1.88494e-08
-1.26107e-06
-1.87986e-08
-1.24232e-06
-1.87444e-08
-1.22364e-06
-1.86761e-08
-1.20504e-06
-1.85892e-08
-1.18654e-06
-1.84901e-08
-1.16814e-06
-1.83863e-08
-1.14985e-06
-1.82837e-08
-1.13166e-06
-1.81835e-08
-1.11356e-06
-1.80883e-08
-1.09555e-06
-1.80034e-08
-1.07762e-06
-1.79203e-08
-1.05978e-06
-1.7834e-08
-1.04203e-06
-1.77382e-08
-1.02439e-06
-1.76298e-08
-1.00687e-06
-1.75113e-08
-9.89479e-07
-1.73863e-08
-9.72215e-07
-1.72558e-08
-9.55088e-07
-1.71191e-08
-9.38099e-07
-1.69799e-08
-9.21244e-07
-1.68462e-08
-9.04516e-07
-1.67201e-08
-8.87914e-07
-1.65927e-08
-8.71452e-07
-1.64528e-08
-8.55147e-07
-1.62959e-08
-8.39014e-07
-1.61226e-08
-8.23063e-07
-1.59414e-08
-8.07293e-07
-1.57595e-08
-7.91697e-07
-1.55855e-08
-7.76267e-07
-1.542e-08
-7.60995e-07
-1.52612e-08
-7.45878e-07
-1.51066e-08
-7.30922e-07
-1.49468e-08
-7.16137e-07
-1.47749e-08
-7.01539e-07
-1.45888e-08
-6.87138e-07
-1.4393e-08
-6.72935e-07
-1.41949e-08
-6.58926e-07
-1.40012e-08
-6.45097e-07
-1.3821e-08
-6.31432e-07
-1.36579e-08
-6.1792e-07
-1.35041e-08
-6.04568e-07
-1.33451e-08
-5.9139e-07
-1.3171e-08
-5.78399e-07
-1.29846e-08
-5.65598e-07
-1.27939e-08
-5.52989e-07
-1.26019e-08
-5.40571e-07
-1.24125e-08
-5.28333e-07
-1.22313e-08
-5.16266e-07
-1.20612e-08
-5.04377e-07
-1.18835e-08
-4.92681e-07
-1.16893e-08
-4.81182e-07
-1.14935e-08
-4.69875e-07
-1.13015e-08
-4.5874e-07
-1.11298e-08
-4.47781e-07
-1.09548e-08
-4.36976e-07
-1.08002e-08
-4.263e-07
-1.06711e-08
-4.15813e-07
-1.04836e-08
-4.05428e-07
-1.03803e-08
-3.95209e-07
-1.02165e-08
-3.85286e-07
-9.9197e-09
-3.75465e-07
-9.8181e-09
-3.65718e-07
-9.74461e-09
-3.56344e-07
-9.37076e-09
-3.46454e-07
-9.88783e-09
-3.36752e-07
-9.6999e-09
-3.28331e-07
-8.41786e-09
-3.19378e-07
-8.95053e-09
-3.1114e-07
-8.23567e-09
-3.04305e-07
-6.8321e-09
-2.99559e-07
-4.74306e-09
-2.9499e-07
-4.56526e-09
-2.88648e-07
-6.3382e-09
-2.8219e-07
-6.45454e-09
-2.7527e-07
-6.91598e-09
-2.68305e-07
-6.96007e-09
-2.61314e-07
-6.98625e-09
-2.54395e-07
-6.91379e-09
-2.47507e-07
-6.88199e-09
-2.4068e-07
-6.82067e-09
-2.33829e-07
-6.84477e-09
-2.27149e-07
-6.67376e-09
-2.20475e-07
-6.6673e-09
-2.13883e-07
-6.58489e-09
-2.07636e-07
-6.24053e-09
-2.01273e-07
-6.35546e-09
-1.95159e-07
-6.10711e-09
-1.89406e-07
-5.74549e-09
-1.84112e-07
-5.2859e-09
-1.78902e-07
-5.20258e-09
-1.73323e-07
-5.56967e-09
-1.67899e-07
-5.41572e-09
-1.62536e-07
-5.35256e-09
-1.57313e-07
-5.21294e-09
-1.52311e-07
-4.98951e-09
-1.47473e-07
-4.82515e-09
-1.42811e-07
-4.64648e-09
-1.378e-07
-4.99386e-09
-1.33082e-07
-4.6997e-09
-1.28811e-07
-4.24913e-09
-1.24326e-07
-4.46087e-09
-1.19953e-07
-4.34597e-09
-1.16717e-07
-3.20629e-09
-1.09992e-07
-6.69417e-09
-1.04141e-07
-5.82094e-09
-1.02049e-07
-2.07364e-09
-9.66371e-08
-5.43002e-09
-9.97778e-08
3.04862e-09
-1.05446e-07
5.39294e-09
-1.30641e-07
2.47581e-08
-1.50135e-07
1.86983e-08
-1.66541e-07
1.49898e-08
-1.75414e-07
7.57621e-09
-1.8063e-07
4.0409e-09
-1.83451e-07
1.75567e-09
-1.84966e-07
5.49722e-10
-1.85636e-07
-2.07679e-10
-1.85784e-07
-6.50641e-10
-1.85564e-07
-9.50168e-10
-1.85002e-07
-1.23092e-09
-1.84201e-07
-1.41524e-09
-1.83158e-07
-1.60746e-09
-1.81843e-07
-1.83546e-09
-1.80302e-07
-2.02088e-09
-1.78614e-07
-2.12996e-09
-1.76837e-07
-2.18396e-09
-1.75005e-07
-2.20465e-09
-1.73075e-07
-2.27178e-09
-1.71011e-07
-2.3746e-09
-1.68817e-07
-2.47383e-09
-1.66537e-07
-2.53119e-09
-1.64237e-07
-2.5227e-09
-1.61939e-07
-2.49275e-09
-1.5966e-07
-2.44714e-09
-1.57403e-07
-2.3998e-09
-1.55159e-07
-2.36291e-09
-1.52902e-07
-2.35443e-09
-1.50625e-07
-2.35354e-09
-1.4831e-07
-2.37333e-09
-1.45925e-07
-2.42695e-09
-1.43445e-07
-2.50854e-09
-1.40835e-07
-2.6253e-09
-1.38072e-07
-2.76878e-09
-1.3515e-07
-2.91933e-09
-1.32084e-07
-3.05783e-09
-1.28911e-07
-3.15924e-09
-1.25673e-07
-3.22142e-09
-1.22407e-07
-3.24705e-09
-1.19147e-07
-3.24041e-09
-1.15917e-07
-3.20948e-09
-1.12741e-07
-3.15594e-09
-1.09646e-07
-3.0755e-09
-1.06665e-07
-2.9636e-09
-1.03822e-07
-2.82609e-09
-1.01123e-07
-2.68521e-09
-9.85405e-08
-2.56955e-09
-9.60271e-08
-2.5028e-09
-9.35252e-08
-2.49319e-09
-9.09837e-08
-2.53468e-09
-8.83623e-08
-2.61637e-09
-8.5632e-08
-2.72684e-09
-8.27889e-08
-2.84117e-09
-7.98851e-08
-2.90316e-09
-7.70428e-08
-2.8428e-09
-7.43973e-08
-2.64695e-09
-7.19826e-08
-2.41687e-09
-6.96798e-08
-2.30551e-09
-6.72632e-08
-2.41956e-09
-6.46104e-08
-2.65586e-09
-6.19108e-08
-2.70252e-09
-5.95021e-08
-2.41129e-09
-5.76011e-08
-1.90296e-09
-5.60093e-08
-1.59312e-09
-5.42799e-08
-1.72983e-09
-5.2156e-08
-2.12323e-09
-4.99803e-08
-2.17384e-09
-4.81801e-08
-1.79713e-09
-4.67366e-08
-1.43902e-09
-4.5068e-08
-1.66269e-09
-4.27814e-08
-2.27941e-09
-4.03643e-08
-2.40839e-09
-3.82536e-08
-2.10076e-09
-3.61705e-08
-2.07176e-09
-3.35693e-08
-2.58877e-09
-3.07472e-08
-2.80854e-09
-2.84983e-08
-2.23445e-09
-2.66955e-08
-1.78763e-09
-2.47463e-08
-1.93366e-09
-2.30515e-08
-1.67956e-09
-2.11896e-08
-1.84781e-09
2.65418e-10
0.000108763
6.45131e-07
0.00010837
8.02357e-07
0.000107948
8.09401e-07
0.000107528
7.90323e-07
0.000107143
7.18346e-07
0.000106795
6.78864e-07
0.000106432
7.24074e-07
0.000106014
8.2806e-07
0.000105553
8.99559e-07
0.000105046
1.00975e-06
0.000104495
1.09655e-06
0.0001039
1.17805e-06
0.000103266
1.2479e-06
0.000102592
1.34488e-06
0.000101872
1.4674e-06
0.000101112
1.54715e-06
0.000100306
1.60911e-06
9.94663e-05
1.64708e-06
9.86137e-05
1.58987e-06
9.77321e-05
1.67502e-06
9.67863e-05
1.96994e-06
9.57817e-05
2.20316e-06
9.47892e-05
2.09347e-06
9.37841e-05
1.89856e-06
9.27638e-05
1.92591e-06
9.16376e-05
2.22746e-06
9.04952e-05
2.48404e-06
8.93741e-05
2.34294e-06
8.82913e-05
2.06923e-06
8.71119e-05
2.36565e-06
8.57542e-05
2.76628e-06
8.43381e-05
2.68708e-06
8.30346e-05
2.46634e-06
8.1884e-05
2.23302e-06
8.07962e-05
2.46973e-06
7.94863e-05
2.86522e-06
7.80716e-05
2.73908e-06
7.67135e-05
2.48799e-06
7.54548e-05
2.45708e-06
7.42777e-05
2.52139e-06
7.28766e-05
3.02258e-06
7.14066e-05
3.05373e-06
7.00321e-05
2.56984e-06
6.88086e-05
2.33122e-06
6.75992e-05
2.55367e-06
6.62213e-05
2.85854e-06
6.47653e-05
2.8155e-06
6.33343e-05
2.66263e-06
6.19694e-05
2.70688e-06
6.06173e-05
2.78145e-06
5.92873e-05
2.67529e-06
5.79388e-05
2.53571e-06
5.65826e-05
2.6023e-06
5.52011e-05
2.74914e-06
5.3877e-05
2.64171e-06
5.26429e-05
2.42356e-06
5.14276e-05
2.51178e-06
5.00414e-05
2.82052e-06
4.85313e-05
3.04609e-06
4.71657e-05
2.81959e-06
4.59325e-05
2.47032e-06
4.46503e-05
2.48449e-06
4.31969e-05
2.89038e-06
4.16866e-05
3.0335e-06
4.03691e-05
2.73147e-06
3.91089e-05
2.46092e-06
3.78384e-05
2.42952e-06
3.65944e-05
2.57847e-06
3.52949e-05
2.65107e-06
3.39148e-05
2.68767e-06
3.25342e-05
2.79418e-06
3.12481e-05
2.8033e-06
2.99353e-05
2.79441e-06
2.86047e-05
2.8046e-06
2.73148e-05
3.16968e-06
2.61216e-05
3.4811e-06
2.52582e-05
3.85808e-06
2.52718e-05
4.56409e-06
2.41695e-05
4.97497e-06
2.09535e-05
4.72286e-06
1.64003e-05
5.44812e-06
1.22394e-05
4.25055e-06
1.05854e-05
2.12686e-06
9.45234e-06
1.3123e-06
9.16089e-06
3.18008e-07
8.69794e-06
8.46966e-07
8.28121e-06
7.74296e-07
8.02474e-06
6.45988e-07
7.94572e-06
3.77764e-07
7.60406e-06
6.77484e-07
7.30997e-06
5.32813e-07
7.05337e-06
4.55989e-07
6.79251e-06
4.85767e-07
6.55538e-06
4.81145e-07
6.33276e-06
4.32847e-07
6.10183e-06
4.04329e-07
5.87259e-06
3.14876e-07
5.65388e-06
2.71863e-07
5.44083e-06
2.55341e-07
5.32502e-06
2.0263e-07
5.27361e-06
2.14259e-07
5.24503e-06
2.28364e-07
5.17935e-06
2.9352e-07
5.05751e-06
3.16517e-07
4.93521e-06
3.28101e-07
4.77517e-06
3.70661e-07
4.59682e-06
3.60039e-07
4.41513e-06
3.32724e-07
4.21579e-06
3.61539e-07
4.02533e-06
3.61673e-07
3.87827e-06
3.04174e-07
3.7466e-06
2.84561e-07
3.62148e-06
2.50458e-07
3.49707e-06
2.23937e-07
3.37059e-06
1.78403e-07
3.25952e-06
1.30553e-07
3.14616e-06
9.94243e-08
3.07704e-06
8.99141e-08
3.05374e-06
8.84275e-08
3.08317e-06
4.0057e-08
3.0996e-06
8.61088e-08
3.05236e-06
1.43433e-07
2.99502e-06
1.75592e-07
2.92326e-06
1.81079e-07
2.84615e-06
1.64973e-07
2.73979e-06
1.84422e-07
2.64321e-06
1.64074e-07
2.57088e-06
1.50506e-07
2.50202e-06
1.54372e-07
2.43624e-06
1.34805e-07
2.37419e-06
1.13018e-07
2.30914e-06
1.28397e-07
2.24537e-06
1.30718e-07
2.18745e-06
1.20916e-07
2.13516e-06
1.00961e-07
2.08247e-06
9.67669e-08
2.02404e-06
1.17412e-07
1.9732e-06
1.08183e-07
1.92544e-06
9.79776e-08
1.87609e-06
8.96186e-08
1.81952e-06
1.12611e-07
1.77122e-06
1.03085e-07
1.72541e-06
9.53734e-08
1.67178e-06
1.03208e-07
1.61679e-06
1.10853e-07
1.56961e-06
1.00934e-07
1.52424e-06
9.12664e-08
1.47152e-06
9.67706e-08
1.41273e-06
1.1622e-07
1.36241e-06
1.06478e-07
1.31182e-06
1.07791e-07
1.25659e-06
1.14454e-07
1.20637e-06
9.44974e-08
1.15601e-06
9.23684e-08
1.09899e-06
1.15591e-07
1.03989e-06
1.23109e-07
9.85808e-07
1.1233e-07
9.33855e-07
1.00408e-07
8.7711e-07
1.07572e-07
8.14994e-07
1.25974e-07
7.50968e-07
1.30211e-07
6.91578e-07
1.16823e-07
6.34566e-07
1.107e-07
5.70965e-07
1.28637e-07
5.00302e-07
1.43049e-07
4.31528e-07
1.35105e-07
3.6662e-07
1.25962e-07
3.00667e-07
1.33605e-07
2.27636e-07
1.48588e-07
1.50635e-07
1.54478e-07
7.96853e-08
1.41068e-07
1.09073e-08
1.34833e-07
-6.57043e-08
1.5242e-07
-1.46311e-07
1.62189e-07
-2.21247e-07
1.53333e-07
-2.96994e-07
1.50635e-07
-3.76464e-07
1.53921e-07
-4.55093e-07
1.57678e-07
-5.32859e-07
1.5811e-07
-6.11363e-07
1.59247e-07
-6.91751e-07
1.61437e-07
-7.72693e-07
1.58905e-07
-8.54784e-07
1.61405e-07
-9.37467e-07
1.65441e-07
-1.0186e-06
1.63282e-07
-1.09797e-06
1.58292e-07
-1.17656e-06
1.5491e-07
-1.25683e-06
1.61594e-07
-1.33787e-06
1.63715e-07
-1.41888e-06
1.61515e-07
-1.49963e-06
1.57782e-07
-1.58019e-06
1.59936e-07
-1.65984e-06
1.59527e-07
-1.73743e-06
1.55917e-07
-1.81331e-06
1.52987e-07
-1.88982e-06
1.52041e-07
-1.96787e-06
1.54354e-07
-2.04417e-06
1.52128e-07
-2.1171e-06
1.45943e-07
-2.18848e-06
1.4122e-07
-2.25964e-06
1.42766e-07
-2.33093e-06
1.42585e-07
-2.40214e-06
1.41661e-07
-2.46879e-06
1.34224e-07
-2.53364e-06
1.30631e-07
-2.59777e-06
1.2615e-07
-2.66245e-06
1.26748e-07
-2.72607e-06
1.27528e-07
-2.78518e-06
1.19663e-07
-2.84245e-06
1.14438e-07
-2.89933e-06
1.1132e-07
-2.95587e-06
1.1283e-07
-3.00793e-06
1.05015e-07
-3.05828e-06
1.01206e-07
-3.10701e-06
9.697e-08
-3.15327e-06
9.1035e-08
-3.19846e-06
9.1217e-08
-3.24135e-06
8.62898e-08
-3.28278e-06
8.27313e-08
-3.32268e-06
8.01589e-08
-3.35853e-06
7.14564e-08
-3.39297e-06
6.65312e-08
-3.4252e-06
6.50387e-08
-3.45578e-06
6.19394e-08
-3.48517e-06
5.8532e-08
-3.5114e-06
5.26298e-08
-3.53563e-06
4.88237e-08
-3.55765e-06
4.41172e-08
-3.57753e-06
3.82759e-08
-3.59558e-06
3.65502e-08
-3.61211e-06
3.32599e-08
-3.62699e-06
2.97142e-08
-3.63892e-06
2.43391e-08
-3.64891e-06
2.00785e-08
-3.65689e-06
1.50819e-08
-3.66323e-06
1.34629e-08
-3.66795e-06
1.08709e-08
-3.67232e-06
8.41954e-09
-3.67538e-06
4.30388e-09
-3.67616e-06
1.24502e-09
-3.67443e-06
-2.85733e-09
-3.67139e-06
-5.67591e-09
-3.66733e-06
-8.14173e-09
-3.66176e-06
-1.1032e-08
-3.6544e-06
-1.42413e-08
-3.64605e-06
-1.67747e-08
-3.63783e-06
-1.63917e-08
-3.62818e-06
-1.94077e-08
-3.61668e-06
-2.33821e-08
-3.60389e-06
-2.52384e-08
-3.5905e-06
-2.65804e-08
-3.57611e-06
-2.85232e-08
-3.56102e-06
-2.9945e-08
-3.5454e-06
-3.12027e-08
-3.52874e-06
-3.27064e-08
-3.51123e-06
-3.41918e-08
-3.49318e-06
-3.61686e-08
-3.47513e-06
-3.72567e-08
-3.45689e-06
-3.67038e-08
-3.43729e-06
-3.88196e-08
-3.4169e-06
-4.03947e-08
-3.39611e-06
-4.18784e-08
-3.37535e-06
-4.14466e-08
-3.3543e-06
-4.19707e-08
-3.33284e-06
-4.28136e-08
-3.31103e-06
-4.34474e-08
-3.28896e-06
-4.40692e-08
-3.2664e-06
-4.5121e-08
-3.24358e-06
-4.58678e-08
-3.22061e-06
-4.62396e-08
-3.19751e-06
-4.61529e-08
-3.17432e-06
-4.62991e-08
-3.15106e-06
-4.64119e-08
-3.12765e-06
-4.67563e-08
-3.10435e-06
-4.67344e-08
-3.08088e-06
-4.71089e-08
-3.05705e-06
-4.76998e-08
-3.03307e-06
-4.78264e-08
-3.00906e-06
-4.78686e-08
-2.98499e-06
-4.78799e-08
-2.96093e-06
-4.78317e-08
-2.93716e-06
-4.75069e-08
-2.91318e-06
-4.79281e-08
-2.88905e-06
-4.81461e-08
-2.86493e-06
-4.82377e-08
-2.84083e-06
-4.82193e-08
-2.81676e-06
-4.80674e-08
-2.7927e-06
-4.7997e-08
-2.76867e-06
-4.7996e-08
-2.74467e-06
-4.80338e-08
-2.72068e-06
-4.80181e-08
-2.69672e-06
-4.80163e-08
-2.67282e-06
-4.78726e-08
-2.64899e-06
-4.76331e-08
-2.62523e-06
-4.74565e-08
-2.60157e-06
-4.72744e-08
-2.57801e-06
-4.71145e-08
-2.55457e-06
-4.68451e-08
-2.53123e-06
-4.66199e-08
-2.508e-06
-4.63847e-08
-2.48489e-06
-4.61496e-08
-2.46188e-06
-4.59204e-08
-2.43899e-06
-4.5672e-08
-2.41621e-06
-4.54189e-08
-2.39355e-06
-4.52013e-08
-2.371e-06
-4.50249e-08
-2.34857e-06
-4.48147e-08
-2.32624e-06
-4.45682e-08
-2.30403e-06
-4.43457e-08
-2.28194e-06
-4.41493e-08
-2.25997e-06
-4.39324e-08
-2.2381e-06
-4.37042e-08
-2.21635e-06
-4.34801e-08
-2.19472e-06
-4.32488e-08
-2.1732e-06
-4.30148e-08
-2.1518e-06
-4.27903e-08
-2.13051e-06
-4.25651e-08
-2.10934e-06
-4.23332e-08
-2.08827e-06
-4.21089e-08
-2.06732e-06
-4.18955e-08
-2.04646e-06
-4.16897e-08
-2.02572e-06
-4.14807e-08
-2.00509e-06
-4.12619e-08
-1.98456e-06
-4.10535e-08
-1.96414e-06
-4.08572e-08
-1.94381e-06
-4.06682e-08
-1.92357e-06
-4.04779e-08
-1.90341e-06
-4.0282e-08
-1.88334e-06
-4.01012e-08
-1.86334e-06
-3.99482e-08
-1.8434e-06
-3.98259e-08
-1.82351e-06
-3.97201e-08
-1.80367e-06
-3.96202e-08
-1.78387e-06
-3.9535e-08
-1.76412e-06
-3.9483e-08
-1.7444e-06
-3.94403e-08
-1.7247e-06
-3.93902e-08
-1.70504e-06
-3.93272e-08
-1.68542e-06
-3.92507e-08
-1.66584e-06
-3.91783e-08
-1.64628e-06
-3.91105e-08
-1.62675e-06
-3.90403e-08
-1.60725e-06
-3.89721e-08
-1.58778e-06
-3.89098e-08
-1.56833e-06
-3.8855e-08
-1.5489e-06
-3.88032e-08
-1.5295e-06
-3.87577e-08
-1.51012e-06
-3.87173e-08
-1.49076e-06
-3.86802e-08
-1.47144e-06
-3.864e-08
-1.45214e-06
-3.85883e-08
-1.43288e-06
-3.85221e-08
-1.41366e-06
-3.84416e-08
-1.39446e-06
-3.83537e-08
-1.37532e-06
-3.82545e-08
-1.35621e-06
-3.81507e-08
-1.33715e-06
-3.80489e-08
-1.31814e-06
-3.79474e-08
-1.29918e-06
-3.78387e-08
-1.2803e-06
-3.77208e-08
-1.26149e-06
-3.76005e-08
-1.24274e-06
-3.74803e-08
-1.22406e-06
-3.73422e-08
-1.20546e-06
-3.7178e-08
-1.18694e-06
-3.69956e-08
-1.16851e-06
-3.68039e-08
-1.15017e-06
-3.66117e-08
-1.13192e-06
-3.6422e-08
-1.11376e-06
-3.6235e-08
-1.0957e-06
-3.60567e-08
-1.07773e-06
-3.58777e-08
-1.05986e-06
-3.56915e-08
-1.0421e-06
-3.54885e-08
-1.02445e-06
-3.52646e-08
-1.00693e-06
-3.50238e-08
-9.89528e-07
-3.47752e-08
-9.72251e-07
-3.45212e-08
-9.55099e-07
-3.42581e-08
-9.3808e-07
-3.39858e-08
-9.21201e-07
-3.37125e-08
-9.04464e-07
-3.34433e-08
-8.87877e-07
-3.31664e-08
-8.71446e-07
-3.28693e-08
-8.55179e-07
-3.25487e-08
-8.39077e-07
-3.22093e-08
-8.23136e-07
-3.18674e-08
-8.07352e-07
-3.15283e-08
-7.91723e-07
-3.11998e-08
-7.7625e-07
-3.08786e-08
-7.6094e-07
-3.05562e-08
-7.45804e-07
-3.02287e-08
-7.3085e-07
-2.98875e-08
-7.16083e-07
-2.95291e-08
-7.01502e-07
-2.91579e-08
-6.871e-07
-2.87826e-08
-6.72874e-07
-2.84096e-08
-6.58821e-07
-2.80433e-08
-6.44941e-07
-2.76908e-08
-6.31236e-07
-2.73519e-08
-6.17711e-07
-2.70191e-08
-6.04369e-07
-2.66771e-08
-5.91211e-07
-2.63201e-08
-5.78232e-07
-2.5954e-08
-5.65425e-07
-2.55918e-08
-5.52791e-07
-2.5227e-08
-5.40333e-07
-2.4863e-08
-5.28071e-07
-2.44849e-08
-5.15999e-07
-2.41246e-08
-5.04133e-07
-2.37422e-08
-4.92476e-07
-2.33386e-08
-4.80999e-07
-2.29628e-08
-4.69711e-07
-2.25831e-08
-4.58543e-07
-2.22918e-08
-4.47563e-07
-2.19287e-08
-4.36678e-07
-2.16789e-08
-4.25992e-07
-2.13522e-08
-4.15618e-07
-2.08538e-08
-4.0542e-07
-2.05741e-08
-3.95236e-07
-2.03966e-08
-3.85325e-07
-1.98284e-08
-3.74818e-07
-2.03219e-08
-3.64599e-07
-1.99619e-08
-3.5582e-07
-1.81474e-08
-3.47169e-07
-1.85363e-08
-3.39106e-07
-1.77601e-08
-3.31806e-07
-1.57163e-08
-3.26984e-07
-1.37694e-08
-3.22078e-07
-1.31387e-08
-3.15021e-07
-1.38867e-08
-3.07042e-07
-1.27185e-08
-2.98634e-07
-1.29699e-08
-2.91067e-07
-1.39016e-08
-2.83449e-07
-1.40681e-08
-2.76121e-07
-1.42395e-08
-2.68847e-07
-1.42302e-08
-2.61699e-07
-1.41293e-08
-2.54634e-07
-1.39735e-08
-2.47675e-07
-1.38367e-08
-2.40633e-07
-1.38582e-08
-2.33676e-07
-1.37971e-08
-2.27134e-07
-1.32116e-08
-2.20713e-07
-1.30843e-08
-2.14445e-07
-1.28499e-08
-2.08406e-07
-1.22768e-08
-2.02899e-07
-1.18601e-08
-1.97482e-07
-1.15233e-08
-1.91596e-07
-1.16316e-08
-1.85603e-07
-1.12799e-08
-1.79587e-07
-1.12205e-08
-1.73953e-07
-1.12074e-08
-1.68189e-07
-1.11842e-08
-1.62708e-07
-1.084e-08
-1.56844e-07
-1.10856e-08
-1.51632e-07
-1.02114e-08
-1.46853e-07
-9.61756e-09
-1.42558e-07
-8.95757e-09
-1.38515e-07
-9.05749e-09
-1.33956e-07
-9.28229e-09
-1.30187e-07
-8.04707e-09
-1.22419e-07
-1.22636e-08
-1.15937e-07
-1.08653e-08
-1.13612e-07
-5.56783e-09
-1.1117e-07
-9.16148e-09
-1.1341e-07
-3.57367e-09
-1.18372e-07
2.98303e-09
-1.47138e-07
2.35399e-08
-1.77475e-07
3.39321e-08
-1.95351e-07
2.43502e-08
-2.00733e-07
3.15779e-08
-1.96646e-07
1.67722e-08
-1.91989e-07
1.24014e-08
-1.90922e-07
8.45372e-09
-1.90862e-07
5.78646e-09
-1.90895e-07
3.45437e-09
-1.90734e-07
1.91803e-09
-1.90211e-07
6.72693e-10
-1.89442e-07
-1.33247e-10
-1.88471e-07
-7.39969e-10
-1.87382e-07
-1.23372e-09
-1.86112e-07
-1.68442e-09
-1.84664e-07
-2.1314e-09
-1.83059e-07
-2.58929e-09
-1.81328e-07
-2.96501e-09
-1.79518e-07
-3.21549e-09
-1.77626e-07
-3.40898e-09
-1.75595e-07
-3.62363e-09
-1.73429e-07
-3.87965e-09
-1.71153e-07
-4.14394e-09
-1.68802e-07
-4.36837e-09
-1.66407e-07
-4.51741e-09
-1.63987e-07
-4.58173e-09
-1.61582e-07
-4.58187e-09
-1.59201e-07
-4.55551e-09
-1.56828e-07
-4.54146e-09
-1.54437e-07
-4.56035e-09
-1.52027e-07
-4.60513e-09
-1.49556e-07
-4.69757e-09
-1.47012e-07
-4.81917e-09
-1.44411e-07
-4.95416e-09
-1.41743e-07
-5.12369e-09
-1.39013e-07
-5.32126e-09
-1.36226e-07
-5.53619e-09
-1.33386e-07
-5.7525e-09
-1.30494e-07
-5.95178e-09
-1.27542e-07
-6.11924e-09
-1.24542e-07
-6.23522e-09
-1.21507e-07
-6.29753e-09
-1.18453e-07
-6.31188e-09
-1.15398e-07
-6.28269e-09
-1.1237e-07
-6.20076e-09
-1.09405e-07
-6.05543e-09
-1.06532e-07
-5.849e-09
-1.03759e-07
-5.60963e-09
-1.01067e-07
-5.38524e-09
-9.84209e-08
-5.21996e-09
-9.57899e-08
-5.13525e-09
-9.31598e-08
-5.12182e-09
-9.05267e-08
-5.16347e-09
-8.78795e-08
-5.25658e-09
-8.51932e-08
-5.40383e-09
-8.24493e-08
-5.57354e-09
-7.96716e-08
-5.66743e-09
-7.69353e-08
-5.56419e-09
-7.43187e-08
-5.24734e-09
-7.18297e-08
-4.88886e-09
-6.93765e-08
-4.74127e-09
-6.68831e-08
-4.89532e-09
-6.43961e-08
-5.12538e-09
-6.20568e-08
-5.02498e-09
-6.0004e-08
-4.44807e-09
-5.81316e-08
-3.76048e-09
-5.61629e-08
-3.54845e-09
-5.39228e-08
-3.95836e-09
-5.16867e-08
-4.3496e-09
-4.97324e-08
-4.12066e-09
-4.80756e-08
-3.44861e-09
-4.625e-08
-3.26172e-09
-4.39729e-08
-3.93928e-09
-4.17417e-08
-4.51242e-09
-3.98357e-08
-4.31863e-09
-3.80174e-08
-3.92554e-09
-3.57522e-08
-4.34552e-09
-3.35392e-08
-4.81218e-09
-3.18057e-08
-4.55397e-09
-3.01156e-08
-3.93761e-09
-2.82769e-08
-3.64001e-09
-2.65135e-08
-3.71053e-09
-2.4535e-08
-3.67064e-09
-2.21732e-08
-4.22045e-09
-4.60997e-10
0.00010896
9.61491e-07
0.000108571
1.19101e-06
0.000108158
1.22212e-06
0.00010773
1.21835e-06
0.000107291
1.15759e-06
0.000106851
1.1201e-06
0.000106402
1.17367e-06
0.000105925
1.30601e-06
0.000105426
1.40021e-06
0.000104904
1.53344e-06
0.000104349
1.65217e-06
0.000103758
1.7715e-06
0.000103113
1.89417e-06
0.00010242
2.04e-06
0.000101695
2.19352e-06
0.000100936
2.30826e-06
0.000100131
2.4159e-06
9.92782e-05
2.50162e-06
9.8364e-05
2.50589e-06
9.74228e-05
2.61796e-06
9.65023e-05
2.89216e-06
9.56053e-05
3.10181e-06
9.46434e-05
3.057e-06
9.35787e-05
2.96481e-06
9.24766e-05
3.02941e-06
9.14104e-05
3.29498e-06
9.04114e-05
3.48424e-06
8.93535e-05
3.40196e-06
8.81652e-05
3.25855e-06
8.70506e-05
3.48126e-06
8.58343e-05
3.98341e-06
8.44368e-05
4.08537e-06
8.30724e-05
3.83147e-06
8.1798e-05
3.50802e-06
8.07034e-05
3.56482e-06
7.95892e-05
3.97991e-06
7.82324e-05
4.0963e-06
7.67878e-05
3.93292e-06
7.54654e-05
3.77977e-06
7.42565e-05
3.73053e-06
7.30963e-05
4.18292e-06
7.18377e-05
4.31242e-06
7.03915e-05
4.01609e-06
6.89576e-05
3.7651e-06
6.76437e-05
3.86746e-06
6.63627e-05
4.13934e-06
6.49654e-05
4.21262e-06
6.34689e-05
4.1589e-06
6.2049e-05
4.12652e-06
6.06775e-05
4.15261e-06
5.92723e-05
4.08021e-06
5.78185e-05
3.9891e-06
5.64607e-05
3.9598e-06
5.51469e-05
4.06269e-06
5.38281e-05
3.96035e-06
5.25086e-05
3.74292e-06
5.12389e-05
3.78146e-06
4.98475e-05
4.21199e-06
4.85457e-05
4.34803e-06
4.73815e-05
3.98403e-06
4.60452e-05
3.80698e-06
4.45586e-05
3.97156e-06
4.3153e-05
4.29639e-06
4.186e-05
4.32709e-06
4.06869e-05
3.90532e-06
3.92817e-05
3.86677e-06
3.78069e-05
3.90511e-06
3.6561e-05