/*--------------------------------*- C++ -*----------------------------------*\
| =========                 |                                                 |
| \\      /  F ield         | OpenFOAM: The Open Source CFD Toolbox           |
|  \\    /   O peration     | Version:  v2006                                 |
|   \\  /    A nd           | Website:  www.openfoam.com                      |
|    \\/     M anipulation  |                                                 |
\*---------------------------------------------------------------------------*/
FoamFile
{
    version     2.0;
    format      ascii;
    class       volVectorField;
    location    "2.6";
    object      U;
}
// * * * * * * * * * * * * * * * * * * * * * * * * * * * * * * * * * * * * * //

dimensions      [0 1 -1 0 0 0 0];


internalField   nonuniform List<vector> 
33000
(
(0.26284 0 0.000646929)
(0.264979 0 0.000794312)
(0.271307 0 0.000737647)
(0.270934 0 0.000701528)
(0.26957 0 0.000664374)
(0.26656 0 0.000725433)
(0.265418 0 0.000852869)
(0.265486 0 0.00100114)
(0.265103 0 0.00106333)
(0.263552 0 0.00121195)
(0.261992 0 0.00129927)
(0.2607 0 0.00137006)
(0.259255 0 0.00140276)
(0.257689 0 0.00150585)
(0.255924 0 0.00172572)
(0.25396 0 0.00185785)
(0.251918 0 0.00186996)
(0.249896 0 0.00183607)
(0.247894 0 0.001551)
(0.24616 0 0.00160129)
(0.244098 0 0.00228148)
(0.24118 0 0.00278901)
(0.238033 0 0.00251444)
(0.235465 0 0.00189744)
(0.233422 0 0.00180365)
(0.231169 0 0.00233965)
(0.228072 0 0.00301268)
(0.224505 0 0.00262191)
(0.221694 0 0.00201097)
(0.219367 0 0.00246805)
(0.216126 0 0.00302608)
(0.21252 0 0.00261524)
(0.209406 0 0.00230723)
(0.206682 0 0.00220471)
(0.203875 0 0.003005)
(0.200138 0 0.00341105)
(0.196263 0 0.0026046)
(0.193194 0 0.00210442)
(0.190364 0 0.00239111)
(0.187316 0 0.00278776)
(0.183688 0 0.00335608)
(0.179495 0 0.00327524)
(0.175861 0 0.00230895)
(0.173077 0 0.00204234)
(0.170198 0 0.00268385)
(0.166589 0 0.00307472)
(0.162966 0 0.00264646)
(0.159708 0 0.00232853)
(0.156564 0 0.00263104)
(0.153102 0 0.00286114)
(0.149563 0 0.00270517)
(0.146382 0 0.00231795)
(0.143395 0 0.00246868)
(0.140175 0 0.00277427)
(0.13673 0 0.00270889)
(0.133563 0 0.00238249)
(0.130531 0 0.00263888)
(0.127135 0 0.00297907)
(0.123404 0 0.00313381)
(0.119608 0 0.00294552)
(0.116236 0 0.00247382)
(0.113237 0 0.00237969)
(0.109965 0 0.00291898)
(0.10624 0 0.00305854)
(0.102513 0 0.00284649)
(0.0992463 0 0.00239033)
(0.0963438 0 0.00227244)
(0.0932579 0 0.00271518)
(0.0898578 0 0.00270102)
(0.0865167 0 0.00252281)
(0.083116 0 0.00277915)
(0.0794501 0 0.00306237)
(0.0756584 0 0.00292415)
(0.0719937 0 0.00270648)
(0.0677499 0 0.00366755)
(0.0628801 0 0.00461775)
(0.055695 0 0.00642294)
(0.0529631 0 0.0110055)
(0.0296846 0 0.00553591)
(0.0309739 0 0.000972313)
(0.0247674 0 -0.00104742)
(0.0253585 0 -0.00247446)
(0.0243501 0 0.000877877)
(0.0232198 0 0.00067423)
(0.0234075 0 0.000840046)
(0.0228488 0 0.000585489)
(0.0217859 0 0.000594896)
(0.020852 0 0.000510513)
(0.0199919 0 0.000500383)
(0.0192253 0 0.000663567)
(0.0184091 0 0.000450808)
(0.0179737 0 0.000360628)
(0.0174209 0 0.000408144)
(0.0168469 0 0.000474829)
(0.0162021 0 0.00038749)
(0.015782 0 0.000275352)
(0.0153516 0 1.47284e-06)
(0.0153061 0 -7.23122e-05)
(0.0151937 0 -0.000179138)
(0.0150128 0 0.000174737)
(0.0146818 0 0.000571732)
(0.0143037 0 0.000777573)
(0.0136442 0 0.000709822)
(0.0131625 0 0.000326827)
(0.0126727 0 0.000252976)
(0.0121258 0 0.000253793)
(0.0116126 0 0.000359347)
(0.0112208 0 0.000295077)
(0.0108472 0 0.00041289)
(0.0104086 0 0.000401754)
(0.00998653 0 0.000339334)
(0.00961886 0 0.000301118)
(0.00921989 0 0.000214656)
(0.00898554 0 0.000164617)
(0.00872737 0 1.34151e-05)
(0.0087014 0 -4.83907e-05)
(0.00868365 0 -0.000227686)
(0.00872831 0 1.78164e-05)
(0.00854087 0 0.000242274)
(0.00845838 0 0.000409295)
(0.00816733 0 0.000412725)
(0.00794954 0 0.000200225)
(0.00768438 0 0.000150843)
(0.00735739 0 0.000125591)
(0.00713408 0 0.000179093)
(0.00691766 0 0.000171418)
(0.0067432 0 0.000171682)
(0.00657443 0 0.000164774)
(0.00635395 0 0.000177443)
(0.00614254 0 0.0001172)
(0.00601095 0 9.65307e-05)
(0.00587976 0 0.000126775)
(0.0056967 0 0.000147018)
(0.00554071 0 0.000127445)
(0.00538166 0 9.72445e-05)
(0.00529586 0 7.62556e-05)
(0.00515536 0 0.000110343)
(0.00500525 0 0.000112774)
(0.00486081 0 9.79722e-05)
(0.00476012 0 7.10838e-05)
(0.0046486 0 0.000107416)
(0.00448688 0 0.000111827)
(0.00436694 0 0.000100243)
(0.00424279 0 9.4223e-05)
(0.00411244 0 0.000106944)
(0.00396671 0 0.000110237)
(0.00383892 0 9.20265e-05)
(0.00373923 0 8.14092e-05)
(0.00361286 0 0.000111453)
(0.0034549 0 0.000114994)
(0.00332839 0 0.000116955)
(0.00316834 0 0.000117779)
(0.00303186 0 8.4742e-05)
(0.00294553 0 8.03755e-05)
(0.00281881 0 0.000115529)
(0.00265323 0 0.000127755)
(0.00249722 0 0.000118262)
(0.00236175 0 9.4805e-05)
(0.00225315 0 9.56655e-05)
(0.00210588 0 0.000125409)
(0.00193381 0 0.000132112)
(0.00177407 0 0.000113652)
(0.00164614 0 0.000104401)
(0.00150335 0 0.000129299)
(0.00132067 0 0.000143314)
(0.00114112 0 0.00012832)
(0.000988343 0 0.00011817)
(0.000833996 0 0.00013515)
(0.000649919 0 0.000150772)
(0.000454951 0 0.000152222)
(0.000262773 0 0.000137916)
(0.000103176 0 0.000129412)
(-6.90841e-05 0 0.000148871)
(-0.000276375 0 0.000160545)
(-0.000477118 0 0.000156668)
(-0.000669448 0 0.000147615)
(-0.000852002 0 0.000143176)
(-0.00104328 0 0.000156588)
(-0.00124728 0 0.00016022)
(-0.00144587 0 0.000160991)
(-0.00165182 0 0.000161669)
(-0.00185121 0 0.000151688)
(-0.00204283 0 0.000153149)
(-0.00224883 0 0.000162254)
(-0.00245623 0 0.000163193)
(-0.00266115 0 0.000156022)
(-0.00284988 0 0.000148351)
(-0.0030458 0 0.000161164)
(-0.00325493 0 0.000165322)
(-0.00346109 0 0.000158697)
(-0.00365646 0 0.000148242)
(-0.00384855 0 0.000154564)
(-0.00405276 0 0.000157774)
(-0.00424877 0 0.000155536)
(-0.00444491 0 0.000152554)
(-0.00463439 0 0.000147555)
(-0.00482395 0 0.000148694)
(-0.00501551 0 0.000149141)
(-0.00520427 0 0.000143878)
(-0.00537969 0 0.000136269)
(-0.00555596 0 0.000141694)
(-0.00573642 0 0.000140531)
(-0.00591428 0 0.00013759)
(-0.00608747 0 0.00013365)
(-0.00625399 0 0.00013037)
(-0.00641567 0 0.000120984)
(-0.00656522 0 0.000120141)
(-0.00672697 0 0.000125416)
(-0.00688364 0 0.00012051)
(-0.00703151 0 0.000112227)
(-0.00716813 0 0.000105437)
(-0.00730671 0 0.000110229)
(-0.00744731 0 0.000105108)
(-0.00757335 0 0.000100464)
(-0.00770149 0 9.46191e-05)
(-0.00781405 0 8.72394e-05)
(-0.00792767 0 9.11338e-05)
(-0.00804263 0 8.5865e-05)
(-0.00814589 0 8.13156e-05)
(-0.00824944 0 7.90172e-05)
(-0.00834695 0 7.01319e-05)
(-0.00842772 0 6.18172e-05)
(-0.00850878 0 6.51112e-05)
(-0.00859108 0 6.20479e-05)
(-0.00866632 0 5.65564e-05)
(-0.00873671 0 5.22303e-05)
(-0.00879887 0 4.9076e-05)
(-0.00886014 0 4.35818e-05)
(-0.00890853 0 3.52461e-05)
(-0.00895413 0 3.68484e-05)
(-0.00899984 0 3.29417e-05)
(-0.00903903 0 2.88434e-05)
(-0.00907336 0 2.4925e-05)
(-0.00910229 0 2.00763e-05)
(-0.00912276 0 1.34776e-05)
(-0.00913954 0 1.4825e-05)
(-0.00915751 0 1.36396e-05)
(-0.0091711 0 7.81914e-06)
(-0.00917712 0 9.73857e-07)
(-0.00917849 0 1.62903e-07)
(-0.00917884 0 -1.89076e-06)
(-0.00917353 0 -4.94399e-06)
(-0.00916557 0 -7.93113e-06)
(-0.00915335 0 -1.02923e-05)
(-0.00913859 0 -1.31346e-05)
(-0.00911859 0 -1.64326e-05)
(-0.00909759 0 -1.60292e-05)
(-0.00907708 0 -1.94397e-05)
(-0.00904903 0 -2.376e-05)
(-0.00901821 0 -2.41489e-05)
(-0.00898672 0 -2.56137e-05)
(-0.00895239 0 -2.75379e-05)
(-0.00891628 0 -2.90989e-05)
(-0.00887815 0 -3.07365e-05)
(-0.0088386 0 -3.09295e-05)
(-0.00879798 0 -3.20081e-05)
(-0.00875535 0 -3.54927e-05)
(-0.00870716 0 -3.84367e-05)
(-0.00866032 0 -3.6578e-05)
(-0.00861406 0 -3.75091e-05)
(-0.00856501 0 -3.89445e-05)
(-0.0085134 0 -4.15748e-05)
(-0.00846054 0 -4.06896e-05)
(-0.00840946 0 -4.11481e-05)
(-0.00835629 0 -4.18602e-05)
(-0.00830268 0 -4.233e-05)
(-0.00824829 0 -4.31403e-05)
(-0.0081926 0 -4.42833e-05)
(-0.00813567 0 -4.53807e-05)
(-0.00807742 0 -4.5877e-05)
(-0.00801952 0 -4.52021e-05)
(-0.00796198 0 -4.52679e-05)
(-0.00790415 0 -4.55562e-05)
(-0.00784611 0 -4.60293e-05)
(-0.00778755 0 -4.6242e-05)
(-0.00772888 0 -4.65625e-05)
(-0.00766933 0 -4.69628e-05)
(-0.00760959 0 -4.68469e-05)
(-0.00754994 0 -4.67959e-05)
(-0.0074903 0 -4.65828e-05)
(-0.00743079 0 -4.64817e-05)
(-0.00737146 0 -4.66804e-05)
(-0.00731184 0 -4.70618e-05)
(-0.00725178 0 -4.71847e-05)
(-0.00719157 0 -4.74266e-05)
(-0.00713111 0 -4.74738e-05)
(-0.00707089 0 -4.7129e-05)
(-0.007011 0 -4.70229e-05)
(-0.00695108 0 -4.71296e-05)
(-0.00689097 0 -4.73047e-05)
(-0.00683083 0 -4.73035e-05)
(-0.00677065 0 -4.74048e-05)
(-0.00671044 0 -4.72196e-05)
(-0.00665067 0 -4.68427e-05)
(-0.00659123 0 -4.66197e-05)
(-0.00653203 0 -4.64388e-05)
(-0.00647297 0 -4.63765e-05)
(-0.00641412 0 -4.60806e-05)
(-0.00635571 0 -4.57866e-05)
(-0.00629758 0 -4.55448e-05)
(-0.00623975 0 -4.53051e-05)
(-0.00618222 0 -4.50471e-05)
(-0.00612502 0 -4.47795e-05)
(-0.00606814 0 -4.45016e-05)
(-0.0060116 0 -4.4302e-05)
(-0.00595524 0 -4.41964e-05)
(-0.00589904 0 -4.40049e-05)
(-0.00584318 0 -4.37283e-05)
(-0.00578764 0 -4.35425e-05)
(-0.00573229 0 -4.34093e-05)
(-0.00567716 0 -4.32108e-05)
(-0.00562233 0 -4.29827e-05)
(-0.00556778 0 -4.27668e-05)
(-0.0055135 0 -4.25447e-05)
(-0.00545951 0 -4.23212e-05)
(-0.00540581 0 -4.21087e-05)
(-0.00535238 0 -4.18879e-05)
(-0.00529924 0 -4.16494e-05)
(-0.0052464 0 -4.14249e-05)
(-0.00519383 0 -4.12144e-05)
(-0.00514152 0 -4.10149e-05)
(-0.00508946 0 -4.08184e-05)
(-0.00503766 0 -4.0612e-05)
(-0.00498613 0 -4.04249e-05)
(-0.00493484 0 -4.02437e-05)
(-0.00488378 0 -4.0054e-05)
(-0.00483297 0 -3.98462e-05)
(-0.00478242 0 -3.96174e-05)
(-0.00473215 0 -3.94117e-05)
(-0.0046821 0 -3.92477e-05)
(-0.00463223 0 -3.91171e-05)
(-0.0045825 0 -3.90007e-05)
(-0.0045329 0 -3.88959e-05)
(-0.00448343 0 -3.88279e-05)
(-0.00443402 0 -3.88206e-05)
(-0.00438462 0 -3.8811e-05)
(-0.00433527 0 -3.87763e-05)
(-0.00428597 0 -3.87276e-05)
(-0.00423676 0 -3.86604e-05)
(-0.00418765 0 -3.85881e-05)
(-0.00413863 0 -3.85067e-05)
(-0.00408971 0 -3.84051e-05)
(-0.00404091 0 -3.83112e-05)
(-0.0039922 0 -3.82331e-05)
(-0.00394358 0 -3.81684e-05)
(-0.00389503 0 -3.81083e-05)
(-0.00384655 0 -3.80666e-05)
(-0.0037981 0 -3.8041e-05)
(-0.0037497 0 -3.80235e-05)
(-0.00370132 0 -3.80081e-05)
(-0.00365298 0 -3.79765e-05)
(-0.00360471 0 -3.79179e-05)
(-0.00355654 0 -3.7817e-05)
(-0.0035085 0 -3.77018e-05)
(-0.00346059 0 -3.75706e-05)
(-0.00341284 0 -3.74345e-05)
(-0.00336525 0 -3.73117e-05)
(-0.00331779 0 -3.72057e-05)
(-0.00327045 0 -3.7113e-05)
(-0.00322324 0 -3.70309e-05)
(-0.00317616 0 -3.69497e-05)
(-0.00312921 0 -3.68571e-05)
(-0.0030824 0 -3.67258e-05)
(-0.00303578 0 -3.65469e-05)
(-0.0029894 0 -3.63383e-05)
(-0.00294328 0 -3.61222e-05)
(-0.00289742 0 -3.5911e-05)
(-0.00285182 0 -3.57044e-05)
(-0.00280646 0 -3.55098e-05)
(-0.00276133 0 -3.53435e-05)
(-0.00271641 0 -3.51867e-05)
(-0.00267169 0 -3.50273e-05)
(-0.0026272 0 -3.4849e-05)
(-0.00258296 0 -3.46432e-05)
(-0.00253901 0 -3.44147e-05)
(-0.00249536 0 -3.41702e-05)
(-0.00245204 0 -3.39105e-05)
(-0.00240904 0 -3.36346e-05)
(-0.0023664 0 -3.33541e-05)
(-0.0023241 0 -3.30908e-05)
(-0.00228213 0 -3.28513e-05)
(-0.00224046 0 -3.26169e-05)
(-0.00219912 0 -3.23595e-05)
(-0.00215815 0 -3.20631e-05)
(-0.00211759 0 -3.17238e-05)
(-0.00207749 0 -3.13533e-05)
(-0.00203784 0 -3.09741e-05)
(-0.00199864 0 -3.06105e-05)
(-0.00195986 0 -3.02706e-05)
(-0.00192148 0 -2.99568e-05)
(-0.0018835 0 -2.96645e-05)
(-0.0018459 0 -2.93689e-05)
(-0.00180871 0 -2.90493e-05)
(-0.00177198 0 -2.86915e-05)
(-0.00173573 0 -2.83008e-05)
(-0.00169997 0 -2.78947e-05)
(-0.00166471 0 -2.74929e-05)
(-0.00162992 0 -2.71249e-05)
(-0.00159557 0 -2.68095e-05)
(-0.0015616 0 -2.65263e-05)
(-0.00152801 0 -2.62342e-05)
(-0.00149484 0 -2.59041e-05)
(-0.00146212 0 -2.55371e-05)
(-0.00142988 0 -2.51535e-05)
(-0.00139812 0 -2.47581e-05)
(-0.00136684 0 -2.43788e-05)
(-0.00133602 0 -2.40252e-05)
(-0.00130565 0 -2.37083e-05)
(-0.00127569 0 -2.33575e-05)
(-0.0012462 0 -2.29547e-05)
(-0.00121721 0 -2.25608e-05)
(-0.00118871 0 -2.21532e-05)
(-0.00116067 0 -2.18608e-05)
(-0.00113304 0 -2.15169e-05)
(-0.00110588 0 -2.12781e-05)
(-0.00107899 0 -2.08774e-05)
(-0.00105254 0 -2.05374e-05)
(-0.00102651 0 -2.01089e-05)
(-0.00100065 0 -2.0172e-05)
(-0.000975407 0 -1.97737e-05)
(-0.000951059 0 -2.01483e-05)
(-0.000926182 0 -1.91413e-05)
(-0.000902549 0 -1.79696e-05)
(-0.000879027 0 -1.67726e-05)
(-0.000853235 0 -1.80602e-05)
(-0.000830708 0 -1.81499e-05)
(-0.000810928 0 -2.44215e-05)
(-0.000785632 0 -2.16842e-05)
(-0.000771033 0 -1.34157e-05)
(-0.000749068 0 -6.05508e-06)
(-0.000748888 0 -4.8739e-06)
(-0.000727294 0 -1.1311e-05)
(-0.000715171 0 -1.14443e-05)
(-0.000696186 0 -1.31239e-05)
(-0.000679896 0 -1.32444e-05)
(-0.000661761 0 -1.35167e-05)
(-0.000644734 0 -1.35588e-05)
(-0.000627265 0 -1.35537e-05)
(-0.000610268 0 -1.36185e-05)
(-0.00059311 0 -1.34909e-05)
(-0.000576071 0 -1.30723e-05)
(-0.00055964 0 -1.24974e-05)
(-0.000542735 0 -1.27344e-05)
(-0.000526717 0 -1.26213e-05)
(-0.000511463 0 -1.40852e-05)
(-0.000494821 0 -1.32267e-05)
(-0.000481195 0 -1.1377e-05)
(-0.000465516 0 -9.56923e-06)
(-0.000455088 0 -9.4914e-06)
(-0.000439683 0 -1.07538e-05)
(-0.000426757 0 -1.08755e-05)
(-0.00041287 0 -1.07026e-05)
(-0.000399694 0 -1.07953e-05)
(-0.00038699 0 -9.88378e-06)
(-0.000374443 0 -8.73006e-06)
(-0.000363062 0 -8.68276e-06)
(-0.000350837 0 -7.76694e-06)
(-0.000338279 0 -9.4639e-06)
(-0.000327052 0 -8.16708e-06)
(-0.000317203 0 -1.30433e-05)
(-0.000304025 0 -7.57751e-06)
(-0.000296418 0 -6.84061e-06)
(-0.000286328 0 4.72819e-07)
(-0.000263774 0 -7.41936e-06)
(-0.00025751 0 -3.61495e-06)
(-0.000252287 0 -4.11319e-05)
(-0.000230504 0 -2.32334e-05)
(-0.000271656 0 -5.65115e-06)
(-0.000249475 0 3.86648e-05)
(-0.000405743 0 6.04202e-05)
(-0.000384093 0 5.37131e-05)
(-0.000429436 0 2.76798e-05)
(-0.000445164 0 1.68805e-05)
(-0.000455162 0 1.00182e-05)
(-0.00046054 0 5.62525e-06)
(-0.000463248 0 2.90329e-06)
(-0.000464269 0 1.40559e-06)
(-0.000464184 0 5.40997e-07)
(-0.000463205 0 -5.15368e-08)
(-0.000461503 0 -5.38184e-07)
(-0.00045921 0 -9.98098e-07)
(-0.000456268 0 -1.51261e-06)
(-0.000452689 0 -2.02041e-06)
(-0.000448646 0 -2.37363e-06)
(-0.000444314 0 -2.5672e-06)
(-0.000439804 0 -2.74174e-06)
(-0.000435108 0 -2.9718e-06)
(-0.00043012 0 -3.24871e-06)
(-0.000424793 0 -3.51898e-06)
(-0.000419192 0 -3.74735e-06)
(-0.000413464 0 -3.91172e-06)
(-0.000407713 0 -3.9892e-06)
(-0.000401991 0 -3.99871e-06)
(-0.000396323 0 -3.97277e-06)
(-0.000390699 0 -3.95543e-06)
(-0.000385076 0 -3.98835e-06)
(-0.00037941 0 -4.02038e-06)
(-0.000373674 0 -4.0684e-06)
(-0.000367805 0 -4.21264e-06)
(-0.00036173 0 -4.40397e-06)
(-0.00035538 0 -4.69186e-06)
(-0.000348693 0 -5.05963e-06)
(-0.000341586 0 -5.452e-06)
(-0.000334073 0 -5.82669e-06)
(-0.000326261 0 -6.10604e-06)
(-0.000318237 0 -6.27404e-06)
(-0.000310102 0 -6.33374e-06)
(-0.000301942 0 -6.3008e-06)
(-0.000293826 0 -6.20398e-06)
(-0.000285814 0 -6.07235e-06)
(-0.00027797 0 -5.90487e-06)
(-0.000270364 0 -5.68563e-06)
(-0.000263077 0 -5.41173e-06)
(-0.000256155 0 -5.12131e-06)
(-0.000249565 0 -4.87145e-06)
(-0.000243207 0 -4.71842e-06)
(-0.000236944 0 -4.70151e-06)
(-0.00023065 0 -4.81725e-06)
(-0.000224211 0 -5.03845e-06)
(-0.000217522 0 -5.32437e-06)
(-0.000210542 0 -5.61023e-06)
(-0.000203345 0 -5.76597e-06)
(-0.000196141 0 -5.6361e-06)
(-0.000189253 0 -5.18558e-06)
(-0.000182943 0 -4.62556e-06)
(-0.000177085 0 -4.29288e-06)
(-0.000171223 0 -4.51682e-06)
(-0.000164879 0 -5.14918e-06)
(-0.000158083 0 -5.43561e-06)
(-0.000151601 0 -4.95325e-06)
(-0.000146224 0 -3.71529e-06)
(-0.000141979 0 -2.69832e-06)
(-0.00013797 0 -2.64222e-06)
(-0.000133141 0 -3.68546e-06)
(-0.000127597 0 -4.18147e-06)
(-0.000122544 0 -3.60052e-06)
(-0.000118599 0 -2.52964e-06)
(-0.000114973 0 -2.55439e-06)
(-0.000110024 0 -4.15236e-06)
(-0.000103867 0 -4.9016e-06)
(-9.81836e-05 0 -4.30265e-06)
(-9.31667e-05 0 -3.75708e-06)
(-8.73652e-05 0 -5.07845e-06)
(-8.02754e-05 0 -6.26078e-06)
(-7.37839e-05 0 -4.92066e-06)
(-6.92578e-05 0 -3.39094e-06)
(-6.30477e-05 0 -3.81974e-06)
(-6.0814e-05 0 -3.00358e-06)
(-6.0638e-05 0 -2.92784e-06)
(-2.88022e-05 0 9.07351e-07)
(0.263118 0 0.00190886)
(0.265288 0 0.00238219)
(0.27157 0 0.00229544)
(0.271148 0 0.00220742)
(0.269677 0 0.00193479)
(0.26643 0 0.00181073)
(0.265294 0 0.00193517)
(0.265387 0 0.00223841)
(0.264956 0 0.00243743)
(0.263343 0 0.0028035)
(0.261817 0 0.0030562)
(0.260485 0 0.00328361)
(0.258979 0 0.00346101)
(0.257333 0 0.00376975)
(0.255561 0 0.00421702)
(0.253729 0 0.00446417)
(0.251803 0 0.00460602)
(0.249719 0 0.00468286)
(0.247566 0 0.00424732)
(0.245462 0 0.0044996)
(0.243194 0 0.00569913)
(0.240701 0 0.00673847)
(0.238151 0 0.00630964)
(0.235699 0 0.00525648)
(0.23322 0 0.00523341)
(0.230576 0 0.00623505)
(0.227659 0 0.00755609)
(0.224755 0 0.00711903)
(0.221967 0 0.00569555)
(0.219381 0 0.00686385)
(0.216196 0 0.00828887)
(0.21259 0 0.0076585)
(0.209161 0 0.00684571)
(0.206031 0 0.00611852)
(0.203345 0 0.00752825)
(0.200401 0 0.00895843)
(0.197016 0 0.0080717)
(0.193441 0 0.00688837)
(0.190152 0 0.00691764)
(0.187143 0 0.00748788)
(0.184017 0 0.00926094)
(0.180398 0 0.00938852)
(0.176742 0 0.00733247)
(0.173475 0 0.00657085)
(0.170498 0 0.00763779)
(0.1673 0 0.00860079)
(0.163796 0 0.00823945)
(0.160089 0 0.00752823)
(0.15662 0 0.00783271)
(0.15322 0 0.00830024)
(0.149869 0 0.00793202)
(0.146513 0 0.00718283)
(0.143156 0 0.0074038)
(0.139776 0 0.00800347)
(0.13632 0 0.00774903)
(0.133089 0 0.00701449)
(0.130084 0 0.00739716)
(0.126878 0 0.00828035)
(0.123265 0 0.00896468)
(0.11957 0 0.00846507)
(0.116333 0 0.00728975)
(0.113236 0 0.00710993)
(0.109848 0 0.00838836)
(0.106115 0 0.00893541)
(0.102511 0 0.00819794)
(0.0993342 0 0.00713611)
(0.0961683 0 0.00689235)
(0.0930446 0 0.00764469)
(0.0898842 0 0.00790784)
(0.0864916 0 0.00778599)
(0.0830384 0 0.00819832)
(0.0797287 0 0.00850486)
(0.0764989 0 0.00833617)
(0.0731632 0 0.00827488)
(0.0699345 0 0.00999065)
(0.0669088 0 0.0115075)
(0.0640472 0 0.0139969)
(0.0628822 0 0.0198065)
(0.0619906 0 0.0232878)
(0.0565732 0 0.0126791)
(0.0534121 0 0.0104791)
(0.0293182 0 0.00393518)
(0.0302219 0 0.00262251)
(0.0236668 0 0.000487548)
(0.0234094 0 -0.000929676)
(0.022365 0 0.00248562)
(0.021193 0 0.00226255)
(0.0201938 0 0.00271103)
(0.0200238 0 0.00198829)
(0.0195514 0 0.00203331)
(0.0185458 0 0.00144295)
(0.0179812 0 0.00119251)
(0.0172872 0 0.00136788)
(0.01668 0 0.00144924)
(0.0161009 0 0.00127314)
(0.0155516 0 0.00108671)
(0.0149645 0 0.00065951)
(0.0143933 0 0.000467413)
(0.0138852 0 0.000457897)
(0.0133198 0 0.000456314)
(0.0132751 0 0.000714584)
(0.0131496 0 0.000861867)
(0.0130715 0 0.00115306)
(0.0127725 0 0.00122322)
(0.0125371 0 0.00136274)
(0.0121389 0 0.00139279)
(0.0117329 0 0.00106929)
(0.011255 0 0.000896005)
(0.0108202 0 0.000866694)
(0.010261 0 0.000949395)
(0.00986326 0 0.000898538)
(0.00953027 0 0.000902354)
(0.00920277 0 0.000770417)
(0.00890418 0 0.000615506)
(0.00858332 0 0.000387719)
(0.00826821 0 0.000190573)
(0.00803465 0 8.66407e-05)
(0.00769695 0 0.000122815)
(0.00767311 0 0.000273474)
(0.00762665 0 0.000173484)
(0.00778886 0 0.000433205)
(0.00767987 0 0.000567156)
(0.0075947 0 0.000776934)
(0.00737966 0 0.000726013)
(0.00723745 0 0.000510509)
(0.00699406 0 0.000442974)
(0.00670572 0 0.000360943)
(0.00651045 0 0.000451623)
(0.0063444 0 0.000495755)
(0.00616616 0 0.00042753)
(0.00601549 0 0.000305421)
(0.00585603 0 0.000372738)
(0.0056898 0 0.000380014)
(0.00553815 0 0.000369526)
(0.00539896 0 0.000286744)
(0.00527851 0 0.000272608)
(0.00513211 0 0.000354897)
(0.00499088 0 0.000339429)
(0.00487381 0 0.00029815)
(0.00475564 0 0.000247384)
(0.00462261 0 0.000334645)
(0.00447792 0 0.000319826)
(0.00437717 0 0.000290518)
(0.00425094 0 0.000297066)
(0.0041072 0 0.000333746)
(0.00397842 0 0.000313271)
(0.00386928 0 0.00026992)
(0.00375277 0 0.000266418)
(0.00360375 0 0.000341466)
(0.00346168 0 0.000327265)
(0.00335017 0 0.000333514)
(0.00320892 0 0.000348808)
(0.00307485 0 0.000264596)
(0.00295713 0 0.000251156)
(0.00282296 0 0.000345881)
(0.00267205 0 0.000376278)
(0.002528 0 0.00034026)
(0.00240148 0 0.000287101)
(0.00226764 0 0.000305149)
(0.00211819 0 0.000377467)
(0.00195662 0 0.000388813)
(0.00179891 0 0.00033859)
(0.00165919 0 0.000318512)
(0.00151372 0 0.00038262)
(0.00134072 0 0.00042638)
(0.00116138 0 0.000394062)
(0.000996436 0 0.000362655)
(0.000836872 0 0.000397191)
(0.000666466 0 0.000443656)
(0.000471353 0 0.000457572)
(0.000282585 0 0.000414066)
(0.000115852 0 0.000390589)
(-6.14557e-05 0 0.000447748)
(-0.000267597 0 0.000481381)
(-0.000463159 0 0.000459959)
(-0.000643412 0 0.000441793)
(-0.000841778 0 0.000443015)
(-0.00104036 0 0.000465256)
(-0.00123522 0 0.000471573)
(-0.001429 0 0.000473973)
(-0.00162811 0 0.00047574)
(-0.00183058 0 0.000462011)
(-0.00203311 0 0.00047115)
(-0.00224099 0 0.000488758)
(-0.00244616 0 0.000482705)
(-0.00264701 0 0.000464679)
(-0.00284268 0 0.000452189)
(-0.00304054 0 0.000478215)
(-0.00324359 0 0.000484463)
(-0.00344598 0 0.000474589)
(-0.00364847 0 0.000457975)
(-0.00384985 0 0.000469898)
(-0.00405117 0 0.000470176)
(-0.00424807 0 0.000460155)
(-0.00443906 0 0.000453635)
(-0.00462767 0 0.000446591)
(-0.00482184 0 0.000451494)
(-0.00501739 0 0.000447066)
(-0.00520338 0 0.000430129)
(-0.00538206 0 0.000413109)
(-0.00556076 0 0.000421214)
(-0.00573714 0 0.000419899)
(-0.00591835 0 0.000416439)
(-0.00609146 0 0.00039761)
(-0.00625299 0 0.000386712)
(-0.00641505 0 0.000366817)
(-0.00657406 0 0.000368127)
(-0.0067385 0 0.000377098)
(-0.00689118 0 0.000355378)
(-0.00703513 0 0.000337235)
(-0.00717676 0 0.000322883)
(-0.00732071 0 0.000332419)
(-0.00745762 0 0.000311016)
(-0.00758254 0 0.000299298)
(-0.00770872 0 0.000284762)
(-0.00782611 0 0.00026497)
(-0.0079405 0 0.000270742)
(-0.00805157 0 0.000255217)
(-0.00815511 0 0.000243446)
(-0.0082591 0 0.000237486)
(-0.00835352 0 0.000209959)
(-0.00843964 0 0.000190738)
(-0.00852481 0 0.000192848)
(-0.00860123 0 0.000184469)
(-0.00867782 0 0.00017283)
(-0.00874757 0 0.000155419)
(-0.00880958 0 0.000144157)
(-0.00886832 0 0.000130223)
(-0.0089199 0 0.000109676)
(-0.00896768 0 0.000108626)
(-0.00901013 0 9.8736e-05)
(-0.00905054 0 8.79569e-05)
(-0.00908392 0 7.27075e-05)
(-0.00911086 0 5.9252e-05)
(-0.00913334 0 4.26454e-05)
(-0.00915124 0 4.11423e-05)
(-0.00916459 0 3.45082e-05)
(-0.00917552 0 2.42479e-05)
(-0.00918579 0 9.24163e-06)
(-0.00919108 0 3.82862e-06)
(-0.00918943 0 -6.86103e-06)
(-0.0091827 0 -1.56634e-05)
(-0.00917416 0 -2.40806e-05)
(-0.0091624 0 -3.25497e-05)
(-0.00914632 0 -4.08697e-05)
(-0.0091255 0 -4.95998e-05)
(-0.00910507 0 -4.80586e-05)
(-0.00908381 0 -5.70527e-05)
(-0.00905705 0 -6.93543e-05)
(-0.00902618 0 -7.35506e-05)
(-0.00899337 0 -7.80306e-05)
(-0.00895896 0 -8.3385e-05)
(-0.0089216 0 -8.74859e-05)
(-0.00888349 0 -9.15311e-05)
(-0.00884336 0 -9.51857e-05)
(-0.00880034 0 -9.90799e-05)
(-0.00875578 0 -0.00010678)
(-0.00871013 0 -0.000112177)
(-0.00866563 0 -0.000108304)
(-0.00861855 0 -0.000113506)
(-0.00856796 0 -0.000118237)
(-0.00851641 0 -0.000124041)
(-0.0084643 0 -0.000121712)
(-0.00841237 0 -0.000123127)
(-0.00835918 0 -0.000125798)
(-0.00830495 0 -0.000127646)
(-0.00825025 0 -0.000129722)
(-0.00819447 0 -0.00013292)
(-0.00813757 0 -0.000135565)
(-0.00808029 0 -0.00013688)
(-0.00802276 0 -0.000135977)
(-0.00796479 0 -0.000136303)
(-0.00790684 0 -0.000136324)
(-0.0078484 0 -0.000137405)
(-0.00778995 0 -0.00013784)
(-0.00773178 0 -0.000139127)
(-0.00767254 0 -0.000140622)
(-0.00761269 0 -0.00014064)
(-0.00755267 0 -0.000140719)
(-0.00749265 0 -0.000140559)
(-0.00743222 0 -0.000140406)
(-0.00737255 0 -0.000139923)
(-0.00731312 0 -0.000141132)
(-0.00725278 0 -0.000141682)
(-0.00719247 0 -0.000142146)
(-0.00713219 0 -0.000142156)
(-0.00707198 0 -0.000141478)
(-0.0070118 0 -0.000141213)
(-0.00695169 0 -0.000141345)
(-0.00689166 0 -0.000141639)
(-0.00683168 0 -0.000141623)
(-0.00677172 0 -0.000141736)
(-0.00671187 0 -0.000141236)
(-0.00665221 0 -0.000140347)
(-0.00659272 0 -0.000139767)
(-0.00653343 0 -0.000139223)
(-0.00647439 0 -0.000138871)
(-0.00641566 0 -0.000138016)
(-0.00635719 0 -0.000137268)
(-0.00629896 0 -0.000136555)
(-0.00624104 0 -0.00013585)
(-0.00618338 0 -0.000135144)
(-0.006126 0 -0.00013439)
(-0.00606893 0 -0.000133613)
(-0.00601214 0 -0.000132991)
(-0.00595563 0 -0.000132566)
(-0.00589939 0 -0.000131973)
(-0.00584343 0 -0.000131204)
(-0.00578776 0 -0.000130584)
(-0.0057324 0 -0.000130084)
(-0.00567731 0 -0.000129465)
(-0.00562251 0 -0.000128789)
(-0.00556799 0 -0.000128135)
(-0.00551376 0 -0.000127459)
(-0.00545982 0 -0.000126773)
(-0.00540618 0 -0.000126121)
(-0.00535282 0 -0.000125458)
(-0.00529974 0 -0.000124761)
(-0.00524694 0 -0.000124099)
(-0.00519442 0 -0.000123478)
(-0.00514216 0 -0.000122882)
(-0.00509016 0 -0.000122276)
(-0.00503844 0 -0.000121632)
(-0.00498699 0 -0.000121031)
(-0.00493581 0 -0.000120466)
(-0.00488487 0 -0.000119908)
(-0.00483415 0 -0.000119323)
(-0.00478366 0 -0.000118697)
(-0.00473339 0 -0.000118122)
(-0.0046833 0 -0.000117649)
(-0.00463338 0 -0.000117282)
(-0.0045836 0 -0.000116967)
(-0.00453393 0 -0.000116673)
(-0.0044844 0 -0.000116444)
(-0.00443497 0 -0.000116345)
(-0.00438562 0 -0.00011626)
(-0.00433635 0 -0.000116132)
(-0.00428715 0 -0.000115958)
(-0.00423805 0 -0.000115732)
(-0.00418905 0 -0.000115509)
(-0.00414013 0 -0.000115289)
(-0.00409128 0 -0.000115045)
(-0.00404249 0 -0.000114816)
(-0.00399377 0 -0.000114612)
(-0.00394511 0 -0.000114436)
(-0.00389651 0 -0.000114272)
(-0.00384797 0 -0.000114147)
(-0.0037995 0 -0.00011405)
(-0.00375108 0 -0.000113965)
(-0.00370273 0 -0.000113875)
(-0.00365445 0 -0.000113742)
(-0.00360625 0 -0.000113549)
(-0.00355815 0 -0.000113283)
(-0.00351012 0 -0.000112991)
(-0.0034622 0 -0.000112661)
(-0.00341438 0 -0.000112319)
(-0.00336667 0 -0.000111995)
(-0.00331907 0 -0.000111692)
(-0.00327161 0 -0.000111391)
(-0.00322431 0 -0.000111078)
(-0.00317719 0 -0.00011076)
(-0.00313023 0 -0.000110427)
(-0.00308345 0 -0.000110023)
(-0.00303684 0 -0.00010952)
(-0.00299044 0 -0.000108951)
(-0.00294426 0 -0.000108351)
(-0.00289829 0 -0.000107756)
(-0.00285256 0 -0.000107176)
(-0.00280705 0 -0.000106622)
(-0.00276177 0 -0.00010612)
(-0.00271672 0 -0.000105623)
(-0.00267193 0 -0.000105104)
(-0.00262738 0 -0.000104529)
(-0.00258312 0 -0.000103882)
(-0.00253915 0 -0.000103179)
(-0.0024955 0 -0.00010244)
(-0.00245215 0 -0.000101674)
(-0.00240911 0 -0.000100876)
(-0.00236639 0 -0.000100062)
(-0.00232402 0 -9.92748e-05)
(-0.00228199 0 -9.85231e-05)
(-0.00224033 0 -9.7755e-05)
(-0.00219906 0 -9.69132e-05)
(-0.00215818 0 -9.59756e-05)
(-0.00211772 0 -9.49534e-05)
(-0.00207767 0 -9.39001e-05)
(-0.00203802 0 -9.28515e-05)
(-0.00199875 0 -9.18491e-05)
(-0.00195987 0 -9.08904e-05)
(-0.00192139 0 -8.99573e-05)
(-0.00188332 0 -8.90344e-05)
(-0.00184571 0 -8.80746e-05)
(-0.00180855 0 -8.70431e-05)
(-0.00177187 0 -8.59385e-05)
(-0.00173564 0 -8.47916e-05)
(-0.00169986 0 -8.36427e-05)
(-0.00166452 0 -8.25227e-05)
(-0.0016296 0 -8.14747e-05)
(-0.00159511 0 -8.05079e-05)
(-0.00156107 0 -7.95814e-05)
(-0.00152749 0 -7.86234e-05)
(-0.00149436 0 -7.75842e-05)
(-0.0014617 0 -7.64876e-05)
(-0.00142947 0 -7.53716e-05)
(-0.00139767 0 -7.426e-05)
(-0.00136629 0 -7.31485e-05)
(-0.00133538 0 -7.20784e-05)
(-0.00130497 0 -7.10597e-05)
(-0.00127503 0 -7.00167e-05)
(-0.00124565 0 -6.89062e-05)
(-0.00121672 0 -6.77571e-05)
(-0.00118831 0 -6.66706e-05)
(-0.00116022 0 -6.55892e-05)
(-0.00113254 0 -6.4569e-05)
(-0.00110524 0 -6.35606e-05)
(-0.00107819 0 -6.3005e-05)
(-0.00105175 0 -6.18471e-05)
(-0.00102641 0 -6.15486e-05)
(-0.00100057 0 -6.00757e-05)
(-0.000975785 0 -5.81264e-05)
(-0.000950631 0 -5.67724e-05)
(-0.000923535 0 -5.74308e-05)
(-0.000899551 0 -5.57389e-05)
(-0.000879684 0 -6.15696e-05)
(-0.00085578 0 -5.84142e-05)
(-0.000840634 0 -4.76569e-05)
(-0.000817006 0 -4.43312e-05)
(-0.000817888 0 -4.15256e-05)
(-0.000794044 0 -4.00806e-05)
(-0.000780007 0 -3.17928e-05)
(-0.000755667 0 -3.19467e-05)
(-0.000737387 0 -3.8728e-05)
(-0.000717952 0 -3.95874e-05)
(-0.000699347 0 -4.13257e-05)
(-0.000681202 0 -4.15655e-05)
(-0.000663084 0 -4.14348e-05)
(-0.000645362 0 -4.07753e-05)
(-0.000627857 0 -4.05248e-05)
(-0.000610466 0 -3.99215e-05)
(-0.000592716 0 -4.02999e-05)
(-0.000575676 0 -3.93779e-05)
(-0.000560035 0 -4.0046e-05)
(-0.000543425 0 -3.90598e-05)
(-0.000529019 0 -3.6364e-05)
(-0.000512674 0 -3.54992e-05)
(-0.000501856 0 -3.44602e-05)
(-0.00048583 0 -3.36992e-05)
(-0.000472002 0 -3.2141e-05)
(-0.000456006 0 -3.15543e-05)
(-0.000442068 0 -3.31283e-05)
(-0.00042748 0 -3.16583e-05)
(-0.000413736 0 -3.13608e-05)
(-0.000399526 0 -3.00685e-05)
(-0.000384872 0 -2.92707e-05)
(-0.000373325 0 -2.93961e-05)
(-0.000360755 0 -2.78597e-05)
(-0.000352513 0 -3.21159e-05)
(-0.000339251 0 -2.74144e-05)
(-0.000331692 0 -2.56171e-05)
(-0.000317682 0 -2.11884e-05)
(-0.000295609 0 -2.70564e-05)
(-0.000283354 0 -1.82517e-05)
(-0.000286127 0 -5.61366e-05)
(-0.00026744 0 -3.92207e-05)
(-0.000304465 0 -1.27033e-05)
(-0.000279541 0 4.72508e-06)
(-0.000461815 0 5.86047e-05)
(-0.000459634 0 5.7481e-05)
(-0.000497147 0 0.000154412)
(-0.000497313 0 7.48099e-05)
(-0.000485776 0 5.59202e-05)
(-0.000478466 0 3.15594e-05)
(-0.000477185 0 1.83171e-05)
(-0.000477187 0 9.47509e-06)
(-0.000477025 0 3.77074e-06)
(-0.000476176 0 4.64052e-07)
(-0.000474572 0 -1.7182e-06)
(-0.000472398 0 -3.41997e-06)
(-0.000469816 0 -4.61122e-06)
(-0.000466866 0 -5.45481e-06)
(-0.000463472 0 -6.35349e-06)
(-0.000459655 0 -7.42919e-06)
(-0.000455481 0 -8.41739e-06)
(-0.000451056 0 -9.08138e-06)
(-0.000446434 0 -9.51821e-06)
(-0.000441535 0 -1.00176e-05)
(-0.00043629 0 -1.07064e-05)
(-0.000430735 0 -1.14936e-05)
(-0.000424946 0 -1.22038e-05)
(-0.000419007 0 -1.27175e-05)
(-0.000412986 0 -1.29901e-05)
(-0.000406956 0 -1.30411e-05)
(-0.000400975 0 -1.29654e-05)
(-0.000395035 0 -1.28734e-05)
(-0.000389082 0 -1.28641e-05)
(-0.000383086 0 -1.29725e-05)
(-0.000376988 0 -1.31951e-05)
(-0.000370725 0 -1.3529e-05)
(-0.000364293 0 -1.39862e-05)
(-0.0003577 0 -1.45892e-05)
(-0.000350953 0 -1.53457e-05)