/*--------------------------------*- C++ -*----------------------------------*\
| =========                 |                                                 |
| \\      /  F ield         | OpenFOAM: The Open Source CFD Toolbox           |
|  \\    /   O peration     | Version:  v2006                                 |
|   \\  /    A nd           | Website:  www.openfoam.com                      |
|    \\/     M anipulation  |                                                 |
\*---------------------------------------------------------------------------*/
FoamFile
{
    version     2.0;
    format      ascii;
    class       volScalarField;
    location    "8.2";
    object      nut;
}
// * * * * * * * * * * * * * * * * * * * * * * * * * * * * * * * * * * * * * //

dimensions      [0 2 -1 0 0 0 0];


internalField   nonuniform List<scalar> 
33000
(
1.15026e-09
1.35965e-09
1.24718e-09
1.15855e-09
1.07949e-09
1.06711e-09
1.20489e-09
1.48321e-09
1.8166e-09
2.05189e-09
2.25021e-09
2.62822e-09
3.27087e-09
4.54015e-09
9.91993e-09
2.21178e-08
6.22049e-09
5.24022e-09
5.60725e-09
6.65087e-09
8.33843e-09
1.01732e-08
1.18726e-08
1.44144e-08
1.80194e-08
2.27262e-08
2.87147e-08
3.56946e-08
4.16322e-08
4.08467e-08
3.28302e-08
2.53189e-08
2.316e-08
2.57569e-08
3.02044e-08
3.50092e-08
4.14801e-08
4.86412e-08
5.27593e-08
5.29944e-08
5.17203e-08
5.11668e-08
5.12011e-08
5.20283e-08
5.37074e-08
5.44268e-08
5.34319e-08
5.12455e-08
4.90493e-08
4.78994e-08
4.87994e-08
5.03058e-08
5.11032e-08
5.0789e-08
4.91807e-08
4.72432e-08
4.56603e-08
4.45789e-08
4.37583e-08
4.34512e-08
4.43959e-08
4.72201e-08
5.14359e-08
5.51482e-08
5.72629e-08
5.8336e-08
5.87398e-08
5.91029e-08
5.84986e-08
5.61298e-08
5.28739e-08
4.96634e-08
4.69698e-08
4.5091e-08
4.36463e-08
4.22066e-08
4.19349e-08
4.11586e-08
5.50655e-08
6.9612e-08
6.71155e-08
7.4921e-08
7.26482e-08
9.76513e-08
1.06905e-07
1.239e-07
1.23167e-07
1.2117e-07
1.15649e-07
1.15034e-07
1.13554e-07
1.10899e-07
1.06854e-07
1.01899e-07
9.70842e-08
9.25197e-08
8.72295e-08
7.80469e-08
6.61558e-08
5.92706e-08
5.72881e-08
5.72397e-08
5.7555e-08
5.40264e-08
5.21847e-08
5.23007e-08
5.49128e-08
5.61816e-08
5.71792e-08
5.68428e-08
5.59306e-08
5.45925e-08
5.40729e-08
5.39738e-08
5.30261e-08
5.18002e-08
5.11722e-08
5.65019e-08
5.789e-08
5.64094e-08
5.64284e-08
5.64988e-08
5.90455e-08
5.96911e-08
6.12226e-08
6.16175e-08
6.12747e-08
6.15248e-08
6.1901e-08
6.21448e-08
6.27237e-08
6.3216e-08
6.3742e-08
6.41442e-08
6.44225e-08
6.47229e-08
6.52129e-08
6.57871e-08
6.63656e-08
6.69292e-08
6.75018e-08
6.81587e-08
6.8939e-08
6.97958e-08
7.05506e-08
7.12375e-08
7.19483e-08
7.27461e-08
7.37508e-08
7.48881e-08
7.59416e-08
7.67364e-08
7.76335e-08
7.89196e-08
8.03345e-08
8.17495e-08
8.31906e-08
8.46792e-08
8.6312e-08
8.81136e-08
9.00912e-08
9.22081e-08
9.46439e-08
9.71453e-08
9.96551e-08
1.02655e-07
1.06349e-07
1.10195e-07
1.1381e-07
1.17972e-07
1.23304e-07
1.29879e-07
1.36852e-07
1.43633e-07
1.51647e-07
1.6225e-07
1.75589e-07
1.92673e-07
2.13673e-07
2.36298e-07
2.63073e-07
2.9745e-07
3.39212e-07
3.61268e-07
3.61277e-07
3.61785e-07
3.62655e-07
3.63491e-07
3.64344e-07
3.65357e-07
3.66547e-07
3.62531e-07
3.2064e-07
2.85715e-07
2.56212e-07
2.31404e-07
2.10853e-07
1.93861e-07
1.80317e-07
1.69154e-07
1.592e-07
1.4986e-07
1.41296e-07
1.3388e-07
1.27448e-07
1.21843e-07
1.16746e-07
1.11905e-07
1.07394e-07
1.03522e-07
1.00223e-07
9.70372e-08
9.39219e-08
9.10799e-08
8.84814e-08
8.62036e-08
8.42703e-08
8.25039e-08
8.07692e-08
7.90901e-08
7.7553e-08
7.61455e-08
7.49194e-08
7.38732e-08
7.29015e-08
7.19542e-08
7.10287e-08
7.01574e-08
6.93486e-08
6.86509e-08
6.80625e-08
6.75055e-08
6.69447e-08
6.63785e-08
6.58432e-08
6.53677e-08
6.4946e-08
6.45559e-08
6.41941e-08
6.38566e-08
6.35451e-08
6.32506e-08
6.29394e-08
6.26324e-08
6.23495e-08
6.20818e-08
6.18787e-08
6.17224e-08
6.1521e-08
6.12958e-08
6.10991e-08
6.09305e-08
6.0802e-08
6.07002e-08
6.05884e-08
6.04703e-08
6.03533e-08
6.02595e-08
6.01913e-08
6.01332e-08
6.00854e-08
6.00309e-08
5.99678e-08
5.99166e-08
5.98928e-08
5.99233e-08
5.99752e-08
5.99755e-08
5.99552e-08
5.99599e-08
5.99847e-08
6.00286e-08
6.01103e-08
6.02225e-08
6.03307e-08
6.04221e-08
6.05133e-08
6.06287e-08
6.07669e-08
6.09035e-08
6.10551e-08
6.12852e-08
6.15559e-08
6.17796e-08
6.19838e-08
6.22352e-08
6.25282e-08
6.2831e-08
6.31668e-08
6.35596e-08
6.39703e-08
6.43658e-08
6.47636e-08
6.51873e-08
6.55992e-08
6.60446e-08
6.65819e-08
6.717e-08
6.78013e-08
6.85016e-08
6.92612e-08
7.0085e-08
7.10552e-08
7.21283e-08
7.32749e-08
7.44991e-08
7.58567e-08
7.74581e-08
7.93108e-08
8.1453e-08
8.38942e-08
8.66969e-08
9.00207e-08
9.40319e-08
9.87475e-08
1.04144e-07
1.10486e-07
1.18096e-07
1.16952e-07
1.15444e-07
1.14182e-07
1.13165e-07
1.12383e-07
1.11829e-07
1.11491e-07
1.11357e-07
1.11421e-07
1.11672e-07
1.12086e-07
1.12633e-07
1.13272e-07
1.13985e-07
1.14763e-07
1.15601e-07
1.16481e-07
1.17378e-07
1.18271e-07
1.19148e-07
1.19997e-07
1.20802e-07
1.21559e-07
1.22264e-07
1.22919e-07
1.23524e-07
1.19272e-07
1.14177e-07
1.09648e-07
1.05583e-07
1.01925e-07
9.86051e-08
9.55723e-08
9.27842e-08
9.02187e-08
8.78566e-08
8.5671e-08
8.36327e-08
8.17243e-08
7.99313e-08
7.82432e-08
7.66599e-08
7.51666e-08
7.37505e-08
7.24063e-08
7.11309e-08
6.99133e-08
6.87452e-08
6.76218e-08
6.65465e-08
6.55257e-08
6.45496e-08
6.36038e-08
6.26788e-08
6.17872e-08
6.09344e-08
6.01101e-08
5.93062e-08
5.85198e-08
5.7752e-08
5.70041e-08
5.62646e-08
5.55302e-08
5.48159e-08
5.41228e-08
5.3433e-08
5.27497e-08
5.20743e-08
5.14086e-08
5.07501e-08
5.01031e-08
4.94691e-08
4.88403e-08
4.8215e-08
4.75957e-08
4.69919e-08
4.6396e-08
4.58087e-08
4.52315e-08
4.46685e-08
4.41034e-08
4.35497e-08
4.30012e-08
4.2468e-08
4.19404e-08
4.14311e-08
4.09264e-08
4.04276e-08
3.9924e-08
3.94311e-08
3.89747e-08
3.84831e-08
3.80306e-08
3.75396e-08
3.71086e-08
3.66616e-08
3.62649e-08
3.58884e-08
3.54718e-08
3.49678e-08
3.46243e-08
3.41487e-08
3.39135e-08
3.39975e-08
3.35113e-08
3.2606e-08
3.21846e-08
3.06582e-08
3.06441e-08
3.06896e-08
3.0207e-08
2.82569e-08
2.68973e-08
2.74608e-08
2.78052e-08
2.78857e-08
2.79743e-08
2.80537e-08
2.81469e-08
2.81453e-08
2.80658e-08
2.73966e-08
2.7179e-08
2.70953e-08
2.77931e-08
2.9155e-08
2.96865e-08
2.93892e-08
2.83902e-08
2.68513e-08
2.9646e-08
3.60747e-08
4.10862e-08
4.84236e-08
5.21085e-08
5.92805e-08
6.2425e-08
6.49455e-08
6.55188e-08
6.56407e-08
6.56991e-08
6.57933e-08
6.53758e-08
6.60154e-08
6.60798e-08
6.51251e-08
6.51216e-08
6.30916e-08
6.18665e-08
5.86053e-08
5.93362e-08
5.83696e-08
6.20365e-08
6.70526e-08
5.57034e-08
5.66867e-08
5.71813e-08
5.89878e-08
5.98143e-08
5.92298e-08
5.76815e-08
5.58922e-08
5.40944e-08
5.21179e-08
5.00903e-08
4.80475e-08
4.60128e-08
4.41384e-08
4.24483e-08
4.08101e-08
3.91716e-08
3.7656e-08
3.62878e-08
3.49788e-08
3.36956e-08
3.24734e-08
3.13668e-08
3.03517e-08
2.93863e-08
2.84507e-08
2.75509e-08
2.67105e-08
2.59096e-08
2.51354e-08
2.44107e-08
2.37374e-08
2.30947e-08
2.24659e-08
2.18485e-08
2.12484e-08
2.06803e-08
2.01398e-08
1.96267e-08
1.91403e-08
1.86656e-08
1.82077e-08
1.77731e-08
1.73527e-08
1.69422e-08
1.65478e-08
1.61736e-08
1.58167e-08
1.54734e-08
1.514e-08
1.48145e-08
1.44966e-08
1.41873e-08
1.38878e-08
1.3598e-08
1.33183e-08
1.30481e-08
1.27866e-08
1.25332e-08
1.22871e-08
1.20486e-08
1.1817e-08
1.15953e-08
1.13778e-08
1.11736e-08
1.09626e-08
1.07769e-08
1.0571e-08
1.04058e-08
1.02119e-08
1.00568e-08
9.87811e-09
9.72349e-09
9.58965e-09
9.39288e-09
9.35155e-09
8.92141e-09
9.08476e-09
2.583e-09
4.77838e-09
1.91058e-08
6.61332e-09
4.74409e-09
4.35572e-09
4.35485e-09
4.31553e-09
4.77697e-09
5.15275e-09
5.3507e-09
5.60615e-09
6.46138e-09
8.87646e-09
1.4016e-08
1.98884e-08
2.34662e-08
2.77837e-08
3.75889e-08
5.99304e-08
8.73273e-08
1.1175e-07
1.46646e-07
1.93315e-07
2.40019e-07
2.80672e-07
3.15812e-07
3.43804e-07
3.6502e-07
3.81724e-07
3.90067e-07
3.97354e-07
4.29773e-07
4.74983e-07
5.17375e-07
5.46248e-07
5.44484e-07
5.20852e-07
5.0496e-07
4.86903e-07
4.07961e-07
3.62186e-07
3.1409e-07
2.83888e-07
2.69522e-07
2.67335e-07
2.67637e-07
2.57058e-07
2.3679e-07
2.26113e-07
2.18573e-07
1.54544e-07
1.75245e-07
2.14362e-07
2.07942e-07
1.96267e-07
1.41811e-07
7.41294e-08
5.59422e-08
5.01228e-08
5.48437e-08
7.49302e-08
1.16121e-07
1.1574e-07
9.48122e-08
8.47101e-08
9.34023e-08
1.37906e-07
2.20957e-07
2.29289e-07
2.03375e-07
1.27927e-07
6.36035e-08
4.38773e-08
4.18761e-08
5.45552e-08
7.51308e-08
1.17696e-07
1.40736e-07
1.44567e-07
1.13476e-07
1.4563e-07
2.15617e-07
2.24055e-07
2.29462e-07
2.47041e-07
2.65029e-07
2.73153e-07
2.68887e-07
2.5584e-07
2.31464e-07
1.99676e-07
1.78495e-07
1.66475e-07
1.72704e-07
1.8504e-07
2.11054e-07
2.25129e-07
2.46577e-07
2.54757e-07
2.47196e-07
2.19143e-07
1.81033e-07
1.47939e-07
1.17033e-07
9.90244e-08
9.65293e-08
1.00983e-07
9.81267e-08
8.24732e-08
9.68016e-08
1.05546e-07
1.10241e-07
9.37276e-08
8.0584e-08
6.72593e-08
1.02842e-07
9.10775e-08
5.74657e-08
2.86457e-08
2.81354e-08
5.41063e-08
4.91355e-08
7.45752e-08
8.37992e-08
1.37304e-07
1.45698e-07
1.53072e-07
1.58902e-07
1.63604e-07
1.67005e-07
1.6929e-07
1.70451e-07
1.7118e-07
1.7185e-07
1.58433e-07
1.54925e-07
1.537e-07
1.5639e-07
1.5186e-07
1.41914e-07
1.34816e-07
1.31789e-07
1.3114e-07
1.2873e-07
1.2341e-07
1.173e-07
1.12564e-07
1.13876e-07
1.16525e-07
1.13704e-07
1.07421e-07
1.01384e-07
9.93686e-08
1.02068e-07
1.02507e-07
9.77622e-08
9.21958e-08
9.02264e-08
9.10417e-08
9.14801e-08
8.9057e-08
8.7865e-08
8.67542e-08
8.27316e-08
8.03937e-08
8.05694e-08
8.19099e-08
8.06387e-08
7.71339e-08
7.50288e-08
7.57405e-08
7.60645e-08
7.45055e-08
7.26671e-08
7.03615e-08
6.88759e-08
6.82747e-08
6.87037e-08
6.98955e-08
6.97486e-08
6.89167e-08
6.69105e-08
6.52633e-08
6.49496e-08
6.58555e-08
6.8349e-08
7.00431e-08
6.98094e-08
6.88782e-08
6.84206e-08
6.90426e-08
7.07078e-08
7.24878e-08
7.28348e-08
7.16806e-08
7.09168e-08
7.16631e-08
7.32733e-08
7.42854e-08
7.3687e-08
7.25631e-08
7.23058e-08
7.30361e-08
7.37664e-08
7.35155e-08
7.29564e-08
7.28741e-08
7.37612e-08
7.54802e-08
7.57041e-08
7.44187e-08
7.36718e-08
7.39423e-08
7.50777e-08
7.7102e-08
7.92764e-08
8.02212e-08
7.98995e-08
7.97892e-08
8.09494e-08
8.30607e-08
8.61369e-08
8.96662e-08
9.27459e-08
9.50377e-08
9.69833e-08
9.98853e-08
1.04719e-07
1.12166e-07
1.20569e-07
1.26911e-07
1.32236e-07
1.39587e-07
1.49965e-07
1.65584e-07
1.89057e-07
2.19998e-07
2.31505e-07
2.31555e-07
2.31554e-07
2.31303e-07
2.31113e-07
2.31163e-07
2.31371e-07
2.31887e-07
2.32365e-07
2.32113e-07
2.31713e-07
2.31659e-07
2.31778e-07
2.32005e-07
2.32029e-07
2.14924e-07
1.97972e-07
1.81115e-07
1.65273e-07
1.51374e-07
1.44217e-07
1.4035e-07
1.34536e-07
1.27997e-07
1.22276e-07
1.1667e-07
1.11297e-07
1.0773e-07
1.0512e-07
1.02651e-07
9.98737e-08
9.68668e-08
9.39881e-08
9.17837e-08
9.00956e-08
8.8381e-08
8.60671e-08
8.37926e-08
8.21971e-08
8.09091e-08
7.9832e-08
7.85233e-08
7.67401e-08
7.52797e-08
7.40289e-08
7.31191e-08
7.20262e-08
7.05538e-08
6.93606e-08
6.85585e-08
6.77741e-08
6.69077e-08
6.59661e-08
6.47747e-08
6.36139e-08
6.28167e-08
6.23896e-08
6.19831e-08
6.12615e-08
6.00073e-08
5.88635e-08
5.83764e-08
5.82859e-08
5.80319e-08
5.73199e-08
5.63316e-08
5.57535e-08
5.59194e-08
5.59177e-08
5.53843e-08
5.47301e-08
5.46382e-08
5.49123e-08
5.49678e-08
5.48917e-08
5.45963e-08
5.45581e-08
5.50949e-08
5.55046e-08
5.57706e-08
5.59807e-08
5.61269e-08
5.64636e-08
5.70088e-08
5.76113e-08
5.81915e-08
5.87815e-08
5.93923e-08
6.00769e-08
6.09498e-08
6.20265e-08
6.32192e-08
6.44392e-08
6.56945e-08
6.70108e-08
6.84611e-08
6.99479e-08
7.14429e-08
7.33769e-08
7.53755e-08
7.74815e-08
7.9707e-08
8.18346e-08
8.40021e-08
8.63624e-08
8.88768e-08
9.16228e-08
9.48513e-08
9.81135e-08
1.01313e-07
1.04594e-07
1.08037e-07
1.11717e-07
1.15638e-07
1.19855e-07
1.24404e-07
1.29177e-07
1.34035e-07
1.38921e-07
1.43987e-07
1.49897e-07
1.5665e-07
1.63463e-07
1.70412e-07
1.77828e-07
1.85874e-07
1.94427e-07
2.03798e-07
2.11443e-07
2.11669e-07
2.11905e-07
2.12074e-07
2.12224e-07
2.12474e-07
2.12875e-07
2.13326e-07
2.1372e-07
2.14057e-07
2.14378e-07
2.14694e-07
2.14991e-07
2.15318e-07
2.15834e-07
2.16534e-07
2.17215e-07
2.17771e-07
2.18266e-07
2.18764e-07
2.19321e-07
2.20004e-07
2.20769e-07
2.21463e-07
2.22081e-07
2.22796e-07
2.23666e-07
2.24557e-07
2.25381e-07
2.26203e-07
2.26975e-07
2.27671e-07
2.2843e-07
2.29407e-07
2.30587e-07
2.31807e-07
2.32905e-07
2.33922e-07
2.34931e-07
2.36068e-07
2.3757e-07
2.39305e-07
2.40938e-07
2.42438e-07
2.43787e-07
2.45217e-07
2.46847e-07
2.48774e-07
2.50393e-07
2.51627e-07
2.52793e-07
2.53444e-07
2.55159e-07
2.58179e-07
1.87001e-07
2.61067e-07
1.11424e-07
1.3547e-07
9.60261e-08
8.02378e-08
3.8121e-08
4.54686e-08
1.07977e-07
9.51955e-08
8.3563e-08
9.09262e-08
2.43572e-07
2.85329e-07
2.84044e-07
2.4836e-07
1.85044e-07
2.53657e-07
1.78508e-07
2.84973e-07
1.10972e-07
7.40572e-08
4.14683e-08
3.6585e-08
2.33645e-08
1.72384e-08
1.7093e-08
2.24935e-08
3.25426e-08
3.78939e-08
3.62718e-08
4.42976e-08
4.66053e-08
5.0831e-08
5.16489e-08
5.92163e-08
6.27115e-08
4.62824e-08
7.95083e-08
4.86351e-08
3.6077e-08
8.41342e-08
5.0077e-08
6.85321e-08
2.04217e-08
5.31224e-08
3.58114e-08
1.64076e-08
1.51099e-08
1.04768e-08
2.03504e-08
2.06263e-08
2.63018e-08
2.58764e-08
2.48957e-08
2.52354e-08
2.63107e-08
2.71013e-08
2.73395e-08
2.74141e-08
2.74669e-08
2.74249e-08
2.74208e-08
2.75365e-08
2.78506e-08
2.81367e-08
2.82821e-08
2.82849e-08
2.82921e-08
2.83514e-08
2.8358e-08
2.83022e-08
2.83038e-08
2.83464e-08
2.84309e-08
2.84951e-08
2.85409e-08
2.86235e-08
2.85821e-08
2.84271e-08
2.84197e-08
2.85462e-08
2.86815e-08
2.87667e-08
2.87159e-08
2.85679e-08
2.84245e-08
2.83077e-08
2.82185e-08
2.8172e-08
2.81286e-08
2.80451e-08
2.79784e-08
2.79776e-08
2.79956e-08
2.79991e-08
2.80176e-08
2.8056e-08
2.81013e-08
2.81342e-08
2.81399e-08
2.81499e-08
2.81634e-08
2.81634e-08
2.81298e-08
2.80776e-08
2.80372e-08
2.80082e-08
2.8006e-08
2.8014e-08
2.79911e-08
2.79505e-08
2.79304e-08
2.79936e-08
2.79622e-08
2.80828e-08
2.7768e-08
2.81089e-08
2.77372e-08
2.80631e-08
2.796e-08
2.78488e-08
2.79303e-08
2.73337e-08
2.9242e-08
2.62011e-08
3.13707e-08
1.81171e-08
2.80448e-08
3.94004e-08
4.1251e-09
3.34867e-09
8.15162e-09
4.03202e-09
5.08105e-09
7.30523e-09
7.12425e-09
6.22269e-09
8.04147e-09
9.05584e-09
7.42299e-09
8.52398e-09
1.30719e-08
2.3545e-08
4.47603e-08
5.43266e-08
5.27341e-08
5.86257e-08
7.16911e-08
9.34644e-08
1.27177e-07
1.7396e-07
2.28085e-07
2.75794e-07
3.17704e-07
3.55683e-07
3.90598e-07
4.21681e-07
4.45522e-07
4.67656e-07
4.8395e-07
4.88356e-07
4.92558e-07
4.99289e-07
4.96192e-07
4.75428e-07
4.33638e-07
3.91144e-07
3.60389e-07
3.37346e-07
3.08533e-07
2.67189e-07
2.25562e-07
1.96809e-07
1.79987e-07
1.71038e-07
1.64389e-07
1.57981e-07
1.51539e-07
1.45091e-07
1.40277e-07
1.37157e-07
1.34644e-07
1.31882e-07
1.28606e-07
1.24782e-07
7.91835e-08
6.38518e-08
5.78528e-08
4.9993e-08
5.43961e-08
7.06527e-08
6.28672e-08
4.33584e-08
3.22651e-08
3.1795e-08
3.98361e-08
5.78436e-08
1.04181e-07
1.27144e-07
1.20086e-07
1.11101e-07
6.48172e-08
5.09827e-08
5.69598e-08
9.05561e-08
1.16468e-07
1.32002e-07
1.46732e-07
1.56359e-07
1.6181e-07
1.66159e-07
1.7254e-07
1.83029e-07
1.97026e-07
2.14536e-07
2.32573e-07
2.36161e-07
2.32978e-07
2.24913e-07
2.087e-07
1.90205e-07
1.72959e-07
1.55189e-07
1.37244e-07
1.24166e-07
1.15578e-07
1.17353e-07
1.32005e-07
1.51767e-07
1.63763e-07
1.64145e-07
1.55317e-07
1.38955e-07
1.17146e-07
9.57281e-08
7.79912e-08
6.60551e-08
5.91521e-08
5.7264e-08
5.82311e-08
6.15086e-08
5.02414e-08
6.1499e-08
7.67248e-08
8.81754e-08
5.78712e-08
5.9776e-08
2.96007e-08
3.71369e-08
2.40937e-08
1.70881e-08
9.37747e-09
1.02056e-08
2.09062e-08
2.03176e-08
3.12898e-08
3.48013e-08
1.15126e-07
1.97085e-07
9.26242e-08
9.01183e-08
7.90306e-08
7.05467e-08
7.22464e-08
8.21342e-08
8.3898e-08
7.18825e-08
6.95899e-08
6.73732e-08
6.46178e-08
6.19379e-08
5.90704e-08
5.57815e-08
5.32355e-08
5.12401e-08
4.89251e-08
4.89969e-08
5.08491e-08
4.9634e-08
4.57193e-08
4.25067e-08
4.13394e-08
4.23351e-08
4.29498e-08
4.16604e-08
3.93057e-08
3.68532e-08
3.58675e-08
3.61114e-08
3.65423e-08
3.60546e-08
3.51979e-08
3.38994e-08
3.23601e-08
3.18461e-08
3.18971e-08
3.17539e-08
3.11382e-08
3.05776e-08
2.98768e-08
2.95098e-08
2.89773e-08
2.85614e-08
2.86729e-08
2.81068e-08
2.74146e-08
2.69979e-08
2.66421e-08
2.68599e-08
2.68625e-08
2.66052e-08
2.63068e-08
2.60685e-08
2.59599e-08
2.59328e-08
2.62411e-08
2.68177e-08
2.73691e-08
2.74186e-08
2.6967e-08
2.66777e-08
2.69237e-08
2.77596e-08
2.86529e-08
2.89384e-08
2.88348e-08
2.88124e-08
2.89275e-08
2.9506e-08
2.99864e-08
3.03014e-08
3.06168e-08
3.08901e-08
3.11158e-08
3.12169e-08
3.15692e-08
3.24367e-08
3.33568e-08
3.37063e-08
3.38417e-08
3.42701e-08
3.4868e-08
3.56626e-08
3.66827e-08
3.76409e-08
3.8501e-08
3.9452e-08
4.04891e-08
4.1796e-08
4.34497e-08
4.47477e-08
4.57615e-08
4.75948e-08
5.00372e-08
5.30542e-08
5.61696e-08
5.88493e-08
6.17319e-08
6.51472e-08
6.98653e-08
7.46208e-08
7.96336e-08
8.59834e-08
9.35432e-08
1.04437e-07
1.19628e-07
1.36968e-07
1.53316e-07
1.68882e-07
1.90867e-07
2.26941e-07
2.80287e-07
3.32753e-07
3.49305e-07
3.31332e-07
3.42354e-07
3.31456e-07
2.62276e-07
2.06916e-07
1.72149e-07
1.55908e-07
1.50017e-07
1.41207e-07
1.29172e-07
1.15855e-07
1.03791e-07
9.64652e-08
9.29885e-08
9.08269e-08
8.70262e-08
8.20841e-08
7.79017e-08
7.48251e-08
7.20881e-08
6.97617e-08
6.78175e-08
6.60258e-08
6.42903e-08
6.21065e-08
5.97423e-08
5.85493e-08
5.83853e-08
5.78569e-08
5.64037e-08
5.4401e-08
5.29012e-08
5.21089e-08
5.16068e-08
5.10054e-08
5.02469e-08
4.98142e-08
4.92016e-08
4.831e-08
4.74305e-08
4.642e-08
4.5771e-08
4.57587e-08
4.57834e-08
4.54569e-08
4.48921e-08
4.39849e-08
4.31557e-08
4.28893e-08
4.30321e-08
4.31216e-08
4.29876e-08
4.24573e-08
4.17247e-08
4.14503e-08
4.16986e-08
4.1918e-08
4.15882e-08
4.10598e-08
4.10456e-08
4.16076e-08
4.19933e-08
4.17991e-08
4.14927e-08
4.17156e-08
4.2308e-08
4.27034e-08
4.28754e-08
4.27236e-08
4.28126e-08
4.36482e-08
4.43557e-08
4.47614e-08
4.50422e-08
4.52422e-08
4.56819e-08
4.63893e-08
4.71417e-08
4.77977e-08
4.83997e-08
4.89265e-08
4.94165e-08
5.00578e-08
5.09398e-08
5.19712e-08
5.30102e-08
5.39732e-08
5.48888e-08
5.59854e-08
5.72506e-08
5.84319e-08
5.98275e-08
6.13706e-08
6.30697e-08
6.49135e-08
6.66266e-08
6.82463e-08
7.00487e-08
7.20324e-08
7.44433e-08
7.74536e-08
8.02522e-08
8.29001e-08
8.56515e-08
8.84878e-08
9.15334e-08
9.48324e-08
9.85198e-08
1.02664e-07
1.0697e-07
1.11211e-07
1.15302e-07
1.19629e-07
1.25073e-07
1.31187e-07
1.37068e-07
1.43057e-07
1.49499e-07
1.56832e-07
1.65035e-07
1.73583e-07
1.8213e-07
1.90537e-07
2.00733e-07
2.12911e-07
2.24359e-07
2.35255e-07
2.48656e-07
2.67206e-07
2.86739e-07
3.04191e-07
3.22112e-07
3.44715e-07
3.74589e-07
4.07789e-07
4.38824e-07
4.68172e-07
5.04616e-07
5.44275e-07
5.8238e-07
6.40324e-07
7.2218e-07
8.01375e-07
8.73825e-07
9.55e-07
1.08992e-06
1.29275e-06
1.49685e-06
1.66877e-06
1.87658e-06
2.17956e-06
2.76993e-06
2.78841e-06
2.80888e-06
2.83257e-06
2.86007e-06
2.88933e-06
2.91754e-06
2.9446e-06
2.97142e-06
2.99814e-06
3.02984e-06
2.97312e-06
1.14366e-06
2.09136e-06
2.68655e-06
1.40998e-06
2.69524e-06
7.87978e-07
1.39051e-06
4.16865e-07
6.47677e-07
1.76113e-07
2.80784e-07
9.69663e-08
1.10358e-07
7.98893e-08
6.66782e-08
3.15393e-08
3.91372e-08
1.01611e-07
8.25317e-08
8.7226e-08
9.87032e-08
1.31615e-07
1.33887e-07
2.54986e-07
1.53028e-07
1.69767e-07
1.3332e-07
2.00709e-07
2.52186e-07
8.84815e-08
6.2208e-08
3.47305e-08
3.12221e-08
2.17198e-08
1.67022e-08
1.66565e-08
2.1498e-08
3.37812e-08
3.76868e-08
5.75408e-08
6.49039e-08
9.56838e-08
7.7056e-08
6.76114e-08
6.61212e-08
4.74411e-08
4.59441e-08
8.50642e-08
4.72381e-08
3.58042e-08
8.90278e-08
4.03223e-08
4.49165e-08
1.64444e-08
3.16449e-08
2.40057e-08
1.38967e-08
1.50795e-08
1.13456e-08
2.02753e-08
1.14881e-08
1.4219e-08
2.74777e-08
3.32597e-08
4.03818e-08
4.16349e-08
3.59935e-08
3.09522e-08
2.82847e-08
2.72217e-08
2.68044e-08
2.61275e-08
2.55221e-08
2.52977e-08
2.52169e-08
2.54295e-08
2.56572e-08
2.55366e-08
2.52661e-08
2.52317e-08
2.52737e-08
2.50793e-08
2.48353e-08
2.47814e-08
2.48518e-08
2.47944e-08
2.45742e-08
2.44104e-08
2.43305e-08
2.44202e-08
2.44157e-08
2.42817e-08
2.42545e-08
2.42374e-08
2.40826e-08
2.39182e-08
2.3887e-08
2.39687e-08
2.40841e-08
2.41608e-08
2.41452e-08
2.41098e-08
2.39844e-08
2.38891e-08
2.38691e-08
2.37858e-08
2.37004e-08
2.3743e-08
2.38318e-08
2.38245e-08
2.37224e-08
2.3592e-08
2.34855e-08
2.34355e-08
2.34349e-08
2.34557e-08
2.34671e-08
2.34621e-08
2.34481e-08
2.34294e-08
2.3417e-08
2.34075e-08
2.34041e-08
2.34167e-08
2.34241e-08
2.34681e-08
2.33582e-08
2.34319e-08
2.31879e-08
2.35659e-08
2.3235e-08
2.34343e-08
2.33494e-08
2.32931e-08
2.33348e-08
2.27968e-08
2.44694e-08
2.20772e-08
2.68375e-08
1.52989e-08
2.40717e-08
3.30477e-08
4.61821e-09
2.57518e-09
5.83841e-09
3.76451e-09
6.62e-09
1.50904e-08
1.86482e-08
1.37848e-08
1.42258e-08
1.6191e-08
1.60658e-08
2.31681e-08
4.86718e-08
9.74079e-08
9.69038e-08
9.72256e-08
1.01316e-07
1.10925e-07
1.28755e-07
1.54388e-07
1.84769e-07
2.14096e-07
2.3729e-07
2.53601e-07
2.67029e-07
2.80187e-07
2.95772e-07
3.15203e-07
3.3806e-07
3.68702e-07
3.98196e-07
4.18445e-07
4.25713e-07
4.15902e-07
3.89485e-07
3.5392e-07
3.1815e-07
2.88852e-07
2.67601e-07
2.48911e-07
2.22199e-07
1.90751e-07
1.66257e-07
1.51414e-07
1.41733e-07
1.35756e-07
1.31039e-07
1.18152e-07
9.46141e-08
1.24653e-07
1.23388e-07
1.21697e-07
1.07209e-07
1.0895e-07
1.15025e-07
7.29284e-08
5.24279e-08
4.33461e-08
4.28963e-08
4.35809e-08
5.02123e-08
4.3299e-08
2.33035e-08
1.69445e-08
1.59124e-08
1.80399e-08
2.15011e-08
2.43998e-08
3.50324e-08
6.31969e-08
8.01299e-08
6.94294e-08
4.67111e-08
3.99365e-08
4.95239e-08
7.27494e-08
9.13735e-08
1.08169e-07
1.14188e-07
1.1999e-07
1.26787e-07
1.33405e-07
1.4029e-07
1.49474e-07
1.61097e-07
1.75543e-07
1.90493e-07
2.0624e-07
2.17625e-07
2.17194e-07
2.11539e-07
1.94563e-07
1.81936e-07
1.66238e-07
1.51104e-07
1.3921e-07
1.26392e-07
1.14413e-07
1.08153e-07
1.09042e-07
1.15052e-07
1.20309e-07
1.2145e-07
1.17448e-07
1.09061e-07
9.787e-08
8.65115e-08
7.68822e-08
6.96173e-08
6.43051e-08
6.19211e-08
6.27913e-08
6.68772e-08
7.24033e-08
5.97993e-08
4.47264e-08
5.45417e-08
8.56463e-08
1.62844e-07
5.71861e-08
4.47997e-08
1.82908e-08
2.21762e-08
1.48849e-08
1.18178e-08
6.88083e-09
7.83879e-09
1.57958e-08
1.52362e-08
2.39649e-08
2.94177e-08
1.34514e-07
2.57632e-07
5.95139e-08
5.10388e-08
5.24221e-08
5.83365e-08
5.62517e-08
6.08089e-08
5.94246e-08
5.481e-08
5.38711e-08
5.13657e-08
4.66112e-08
4.32486e-08
4.17884e-08
4.11102e-08
4.25613e-08
4.33923e-08
4.02347e-08
3.67296e-08
3.43628e-08
3.45022e-08
3.56326e-08
3.48564e-08
3.2921e-08
3.16579e-08
3.04678e-08
2.96955e-08
2.90358e-08
2.87706e-08
2.88362e-08
2.80724e-08
2.67392e-08
2.59601e-08
2.57859e-08
2.55827e-08
2.50055e-08
2.44874e-08
2.44977e-08
2.3968e-08
2.3117e-08
2.27305e-08
2.26805e-08
2.27006e-08
2.24309e-08
2.20485e-08
2.1863e-08
2.16413e-08
2.15516e-08
2.13599e-08
2.0998e-08
2.10292e-08
2.13657e-08
2.15151e-08
2.14119e-08
2.12597e-08
2.14453e-08
2.19988e-08
2.24782e-08
2.24053e-08
2.22641e-08
2.21966e-08
2.24823e-08
2.33296e-08
2.41026e-08
2.4428e-08
2.4478e-08
2.43679e-08
2.47417e-08
2.56051e-08
2.63954e-08
2.67555e-08
2.6706e-08
2.68619e-08
2.73474e-08
2.81157e-08
2.91605e-08
2.98819e-08
2.99067e-08
3.0109e-08
3.09085e-08
3.17988e-08
3.27838e-08
3.39847e-08
3.48438e-08
3.53212e-08
3.60207e-08
3.72892e-08
3.9119e-08
4.11672e-08
4.25895e-08
4.31629e-08
4.42779e-08
4.62799e-08
4.92462e-08
5.29952e-08
5.63746e-08
5.94051e-08
6.20487e-08
6.50117e-08
6.9401e-08
7.53102e-08
8.14135e-08
8.79132e-08
9.73128e-08
1.09789e-07
1.225e-07
1.34107e-07
1.46902e-07
1.65011e-07
1.895e-07
2.15858e-07
2.38956e-07
2.51596e-07
2.5448e-07
2.63713e-07
2.5175e-07
2.06881e-07
1.6993e-07
1.50809e-07
1.42995e-07
1.39776e-07
1.31436e-07
1.19367e-07
1.06763e-07
9.7098e-08
9.3353e-08
9.0693e-08
8.67369e-08
8.24591e-08
7.79147e-08
7.38323e-08
7.16359e-08
7.0112e-08
6.79422e-08
6.5785e-08
6.37943e-08
6.17382e-08
5.9363e-08
5.74893e-08
5.68407e-08
5.67086e-08
5.59482e-08
5.47511e-08
5.30847e-08
5.13944e-08
5.02803e-08
4.94904e-08
4.92365e-08
4.91992e-08
4.89972e-08
4.81677e-08
4.66754e-08
4.55206e-08
4.4887e-08
4.47252e-08
4.48431e-08
4.47662e-08
4.43214e-08
4.34246e-08
4.25083e-08
4.21723e-08
4.21027e-08
4.20931e-08
4.19492e-08
4.17681e-08
4.1542e-08
4.10991e-08
4.09084e-08
4.09688e-08
4.08531e-08
4.0494e-08
4.04191e-08
4.06993e-08
4.09939e-08
4.11513e-08
4.10582e-08
4.10143e-08
4.12555e-08
4.16809e-08
4.20133e-08
4.21342e-08
4.22032e-08
4.24521e-08
4.31047e-08
4.37872e-08
4.41883e-08
4.43903e-08
4.47394e-08
4.53416e-08
4.59927e-08
4.67079e-08
4.7354e-08
4.8007e-08
4.86546e-08
4.91807e-08
4.96981e-08
5.03507e-08
5.13797e-08
5.25988e-08
5.35869e-08
5.42561e-08
5.50814e-08
5.64508e-08
5.78618e-08
5.92796e-08
6.07302e-08
6.21991e-08
6.38575e-08
6.54568e-08
6.69655e-08
6.87405e-08
7.08791e-08
7.34199e-08
7.62539e-08
7.88795e-08
8.15051e-08
8.43447e-08
8.72172e-08
9.00018e-08
9.28979e-08
9.64875e-08
1.00865e-07
1.05292e-07
1.09403e-07
1.13389e-07
1.17803e-07
1.23208e-07
1.29032e-07
1.34653e-07
1.40471e-07
1.46765e-07
1.53972e-07
1.61996e-07
1.70277e-07
1.78682e-07
1.87005e-07
1.97131e-07
2.0997e-07
2.22002e-07
2.31927e-07
2.43109e-07
2.60368e-07
2.80462e-07
2.9968e-07
3.18987e-07
3.41037e-07
3.68771e-07
3.98056e-07
4.28137e-07
4.60288e-07
4.978e-07
5.36089e-07
5.71654e-07
6.227e-07
7.06472e-07
7.97395e-07
8.68919e-07
9.32652e-07
1.03762e-06
1.24207e-06
1.47077e-06
1.67703e-06
1.81482e-06
2.04177e-06
2.57879e-06
3.88038e-06
7.33154e-06
7.73346e-06
7.75337e-06
5.84962e-06
7.79379e-06
7.50866e-06
3.33315e-06
1.06449e-06
1.66266e-06
9.02086e-07
3.91546e-06
1.04869e-06
6.45458e-07
6.58765e-07
3.80248e-07
5.90271e-07
1.72385e-07
2.99764e-07
9.15553e-08
1.02348e-07
7.40804e-08
5.94709e-08
2.85653e-08
3.52176e-08
9.1697e-08
7.36616e-08
8.27366e-08
9.51255e-08
1.28694e-07
1.5428e-07
3.59805e-07
1.57552e-07
1.48048e-07
1.19298e-07
2.99538e-07
1.25716e-07
8.36805e-08
4.04577e-08
3.09717e-08
2.90527e-08
2.2989e-08
1.77021e-08
1.70813e-08
2.19303e-08
3.57666e-08
3.90677e-08
6.98957e-08
9.4559e-08
7.83948e-07
2.53144e-07
2.00098e-07
1.05917e-07
4.88297e-08
1.52303e-07
4.02479e-08
3.63331e-08
4.02075e-08
2.08827e-07
3.08681e-08
4.62063e-08
1.58186e-08
2.32452e-08
1.81571e-08
1.50624e-08
1.62703e-08
1.10447e-08
1.96732e-08
1.12843e-08
1.27958e-08
2.91414e-08
3.85418e-08
4.2843e-08
4.09063e-08
3.51295e-08
3.13992e-08
3.16645e-08
3.2118e-08
3.04845e-08
2.85263e-08
2.73973e-08
2.69649e-08
2.64511e-08
2.59401e-08
2.57099e-08
2.56442e-08
2.57801e-08
2.57354e-08
2.53687e-08
2.50563e-08
2.50548e-08
2.51204e-08
2.49965e-08
2.48545e-08
2.48421e-08
2.48562e-08
2.47377e-08
2.45058e-08
2.43803e-08
2.43626e-08
2.44284e-08
2.44655e-08
2.44008e-08
2.42631e-08
2.4086e-08
2.38771e-08
2.37201e-08
2.37087e-08
2.37887e-08
2.3877e-08
2.39121e-08
2.38774e-08
2.38112e-08
2.37103e-08
2.36928e-08
2.37138e-08
2.36598e-08
2.35977e-08
2.36074e-08
2.36293e-08
2.35866e-08
2.34965e-08
2.34103e-08
2.33523e-08
2.33238e-08
2.33141e-08
2.33029e-08
2.32864e-08
2.32643e-08
2.32484e-08
2.32457e-08
2.32358e-08
2.32236e-08
2.3229e-08
2.32567e-08
2.32541e-08
2.32593e-08
2.31261e-08
2.32266e-08
2.30352e-08
2.33929e-08
2.29992e-08
2.31945e-08
2.31873e-08
2.31575e-08
2.32066e-08
2.26885e-08
2.43627e-08
2.19693e-08
2.66314e-08
1.51374e-08
2.37981e-08
3.15999e-08
4.83573e-09
2.2195e-09
4.97605e-09
3.92586e-09
8.09338e-09
2.05249e-08
1.76436e-07
1.48538e-08
9.86874e-09
1.24264e-08
2.46333e-08
4.31033e-08
7.97119e-08
1.28059e-07
1.32322e-07
1.36933e-07
1.42059e-07
1.49655e-07
1.60303e-07
1.72291e-07
1.83132e-07
1.91335e-07
1.97523e-07
2.03621e-07
2.11473e-07
2.22201e-07
2.35561e-07
2.51083e-07
2.66519e-07
2.80449e-07
2.91314e-07
2.94321e-07
2.87072e-07
2.73216e-07
2.57104e-07
2.41263e-07
2.27074e-07
2.14319e-07
1.99813e-07
1.83798e-07
1.66522e-07
1.529e-07
1.46411e-07
1.4237e-07
1.39252e-07
1.37051e-07
7.92742e-08
7.32176e-08
8.28182e-08
8.41969e-08
1.01186e-07
1.40172e-07
6.64231e-08
4.2899e-08
5.35865e-08
6.7486e-08
4.75191e-08
2.89037e-08
2.68524e-08
3.08255e-08
3.28253e-08
2.44406e-08
1.57218e-08
1.31477e-08
1.42246e-08
1.59612e-08
1.68196e-08
1.52738e-08
1.6008e-08
2.28018e-08
3.43608e-08
4.02716e-08
3.54276e-08
3.22878e-08
4.18196e-08
6.27247e-08
8.39411e-08
6.29451e-08
6.25835e-08
1.21112e-07
1.21997e-07
1.23389e-07
1.26732e-07
1.32806e-07
1.39918e-07
1.49327e-07
1.60431e-07
1.72259e-07
1.83039e-07
1.92722e-07
1.97292e-07
1.96234e-07
1.86869e-07
1.74564e-07
1.56893e-07
1.44004e-07
1.31865e-07
1.2248e-07
1.1296e-07
1.05329e-07
1.02047e-07
1.02564e-07
1.03975e-07
1.03421e-07
1.00042e-07
9.59762e-08
9.14784e-08
8.60418e-08
8.17497e-08
7.86486e-08
7.615e-08
7.49748e-08
7.53395e-08
7.7459e-08
8.2411e-08
9.04572e-08
8.23633e-08
6.90181e-08
5.48911e-08
7.34633e-08
9.61775e-08
1.30278e-07
7.92424e-08
4.73353e-08
1.7707e-08
2.19014e-08
1.38118e-08
1.10786e-08
6.53123e-09
7.39505e-09
1.43029e-08
1.37676e-08
2.08761e-08
2.18452e-08
5.42951e-08
2.5805e-07
2.32049e-07
5.05619e-08
4.80427e-08
4.904e-08
4.8452e-08
5.40701e-08
5.10136e-08
4.3851e-08
4.10251e-08
4.04122e-08
4.05581e-08
4.20008e-08
4.10812e-08
3.73601e-08
3.427e-08
3.32823e-08
3.42904e-08
3.42576e-08
3.27824e-08
3.11136e-08
2.97903e-08
2.94627e-08
2.9271e-08
2.82077e-08
2.72699e-08
2.7235e-08
2.65213e-08
2.5348e-08
2.51898e-08
2.52088e-08
2.4649e-08
2.39728e-08
2.35543e-08
2.33605e-08
2.31147e-08
2.24795e-08
2.20776e-08
2.20983e-08
2.17803e-08
2.1555e-08
2.1632e-08
2.1673e-08
2.15268e-08
2.11434e-08
2.06848e-08
2.03412e-08
2.0631e-08
2.11082e-08
2.13482e-08
2.12529e-08
2.07402e-08
2.06632e-08
2.10724e-08
2.16806e-08
2.19406e-08
2.19353e-08
2.18402e-08
2.17034e-08
2.20658e-08
2.28583e-08
2.36251e-08
2.40343e-08
2.40163e-08
2.40179e-08
2.4558e-08
2.53646e-08
2.58095e-08
2.58683e-08
2.61143e-08
2.67948e-08
2.77465e-08
2.85678e-08
2.88557e-08
2.88182e-08
2.9228e-08
3.02206e-08
3.11625e-08
3.21794e-08
3.331e-08
3.39572e-08
3.43561e-08
3.50689e-08
3.64717e-08
3.82526e-08
4.00686e-08
4.16172e-08
4.24895e-08
4.35132e-08
4.53218e-08
4.75278e-08
5.04516e-08
5.40419e-08
5.74752e-08
6.04587e-08
6.31317e-08
6.69797e-08
7.26104e-08
7.8341e-08
8.30746e-08
8.94883e-08
1.00293e-07
1.11777e-07
1.22159e-07
1.33499e-07
1.44824e-07
1.57751e-07
1.72308e-07
1.88073e-07
2.003e-07
2.06462e-07
2.07732e-07
1.93303e-07
1.66354e-07
1.45766e-07