/*--------------------------------*- C++ -*----------------------------------*\
| =========                 |                                                 |
| \\      /  F ield         | OpenFOAM: The Open Source CFD Toolbox           |
|  \\    /   O peration     | Version:  v2006                                 |
|   \\  /    A nd           | Website:  www.openfoam.com                      |
|    \\/     M anipulation  |                                                 |
\*---------------------------------------------------------------------------*/
FoamFile
{
    version     2.0;
    format      ascii;
    class       volScalarField;
    location    "8.2";
    object      p;
}
// * * * * * * * * * * * * * * * * * * * * * * * * * * * * * * * * * * * * * //

dimensions      [1 -1 -2 0 0 0 0];


internalField   nonuniform List<scalar> 
33000
(
7334.56
7319.81
7312.25
7304.95
7298.12
7291.72
7285.35
7278.67
7271.85
7265.16
7258.68
7252.4
7246.28
7240.38
7234.84
7230.13
7226.83
7223.93
7220.82
7217.51
7214.22
7211.21
7208.37
7205.68
7203.15
7200.79
7198.62
7196.71
7195.16
7194.01
7193.32
7193.02
7193.06
7193.34
7193.7
7194.09
7194.58
7195.25
7196.12
7197.17
7198.42
7199.91
7201.56
7203.44
7205.52
7207.79
7210.29
7212.99
7215.89
7218.93
7222.16
7225.56
7229.12
7232.85
7236.75
7240.83
7245.05
7249.4
7253.88
7258.47
7263.16
7267.94
7272.83
7277.83
7282.91
7288.06
7293.3
7298.61
7303.97
7309.39
7314.85
7320.33
7325.82
7331.25
7336.57
7341.73
7346.56
7350.53
7353.76
7362.62
7369.37
7376.16
7382.71
7389.71
7396.53
7404.09
7411.33
7418.99
7426.15
7433.7
7440.92
7448.38
7455.65
7462.99
7470.01
7477.1
7483.39
7490.19
7494.3
7501.43
7512.16
7520.5
7530.09
7539.45
7548.52
7558.09
7568.02
7577.81
7587.77
7597.7
7607.52
7617.27
7626.81
7636.39
7645.29
7654.7
7661.82
7671.47
7684.28
7694.48
7705.44
7716.57
7727.32
7738.54
7750.05
7761.32
7772.71
7784.08
7795.4
7806.74
7818.05
7829.26
7840.4
7851.46
7862.44
7873.33
7884.08
7894.71
7905.19
7915.54
7925.76
7935.82
7945.71
7955.44
7965.01
7974.41
7983.65
7992.71
8001.57
8010.22
8018.68
8026.96
8035.05
8042.93
8050.59
8058.03
8065.26
8072.28
8079.09
8085.68
8092.04
8098.19
8104.12
8109.82
8115.32
8120.61
8125.67
8130.52
8135.17
8139.63
8143.89
8147.94
8151.8
8155.48
8159
8162.34
8165.52
8168.52
8171.37
8174.08
8176.66
8179.11
8181.44
8183.66
8185.77
8187.78
8189.69
8191.53
8193.29
8194.95
8196.5
8197.94
8199.27
8200.48
8201.57
8202.53
8203.34
8204.01
8204.53
8204.89
8205.1
8205.16
8205.05
8204.77
8204.31
8203.67
8202.86
8201.87
8200.69
8199.32
8197.76
8196.03
8194.1
8191.98
8189.66
8187.15
8184.45
8181.56
8178.49
8175.24
8171.79
8168.16
8164.34
8160.35
8156.2
8151.88
8147.39
8142.75
8137.95
8132.99
8127.9
8122.68
8117.33
8111.86
8106.27
8100.57
8094.77
8088.87
8082.88
8076.82
8070.69
8064.5
8058.25
8051.96
8045.62
8039.24
8032.84
8026.43
8020
8013.57
8007.14
8000.71
7994.3
7987.91
7981.55
7975.23
7968.94
7962.69
7956.49
7950.34
7944.25
7938.23
7932.26
7926.36
7920.54
7914.79
7909.12
7903.53
7898.03
7892.61
7887.28
7882.03
7876.88
7871.82
7866.86
7861.99
7857.22
7852.54
7847.97
7843.48
7839.1
7834.81
7830.63
7826.54
7822.56
7818.67
7814.87
7811.18
7807.58
7804.07
7800.67
7797.35
7794.14
7791.01
7787.97
7785.03
7782.17
7779.4
7776.72
7774.12
7771.6
7769.17
7766.81
7764.54
7762.33
7760.21
7758.15
7756.16
7754.25
7752.39
7750.6
7748.88
7747.21
7745.6
7744.04
7742.54
7741.1
7739.7
7738.34
7737.04
7735.77
7734.55
7733.37
7732.23
7731.12
7730.05
7729.01
7728
7727.02
7726.06
7725.13
7724.24
7723.37
7722.53
7721.71
7720.93
7720.18
7719.47
7718.78
7718.12
7717.5
7716.9
7716.34
7715.81
7715.31
7714.84
7714.4
7714
7713.62
7713.27
7712.95
7712.66
7712.4
7712.17
7711.96
7711.78
7711.63
7711.5
7711.4
7711.32
7711.27
7711.23
7711.22
7711.24
7711.27
7711.32
7711.4
7711.49
7711.6
7711.73
7711.87
7712.03
7712.21
7712.4
7712.6
7712.82
7713.05
7713.29
7713.55
7713.81
7714.08
7714.36
7714.65
7714.95
7715.25
7715.57
7715.88
7716.2
7716.53
7716.86
7717.2
7717.54
7717.88
7718.22
7718.57
7718.91
7719.26
7719.61
7719.95
7720.3
7720.65
7721
7721.34
7721.69
7722.03
7722.37
7722.71
7723.05
7723.39
7723.73
7724.07
7724.41
7724.75
7725.1
7725.44
7725.78
7726.12
7726.47
7726.82
7727.16
7727.51
7727.87
7728.21
7728.59
7728.94
7729.25
7729.61
7730
7730.27
7730.86
7731.15
7731.2
7731.51
7731.75
7732.12
7732.47
7732.88
7733.32
7733.79
7734.3
7734.82
7735.4
7735.98
7736.58
7737.21
7737.93
7738.56
7739.42
7740.12
7740.61
7741.38
7742.05
7742.91
7743.72
7744.67
7745.59
7746.62
7747.64
7748.73
7749.82
7750.99
7752.14
7753.42
7754.63
7755.82
7757.08
7758.35
7759.49
7761.3
7762.32
7763
7764.48
7765.49
7766.66
7767.87
7769.14
7770.46
7771.81
7773.19
7774.61
7776.06
7777.53
7779.03
7780.56
7782.11
7783.68
7785.27
7786.88
7788.51
7790.16
7791.83
7793.51
7795.21
7796.93
7798.66
7800.4
7802.16
7803.93
7805.71
7807.5
7809.31
7811.12
7812.95
7814.78
7816.62
7818.48
7820.34
7822.2
7824.08
7825.96
7827.85
7829.74
7831.64
7833.54
7835.44
7837.35
7839.26
7841.18
7843.09
7845.01
7846.93
7848.85
7850.77
7852.69
7854.61
7856.52
7858.44
7860.35
7862.26
7864.16
7866.07
7867.97
7869.86
7871.75
7873.63
7875.51
7877.39
7879.25
7881.12
7882.97
7884.82
7886.66
7888.5
7890.32
7892.14
7893.95
7895.76
7897.58
7899.37
7901.14
7135.85
7122.34
7114.63
7107.21
7100.37
7093.75
7087.12
7080.46
7073.8
7067.25
7060.83
7054.51
7048.24
7042.18
7036.66
7032.06
7028.81
7026.28
7023.42
7020.35
7017.3
7014.39
7011.56
7008.83
7006.22
7003.73
7001.42
6999.35
6997.7
6996.66
6996.08
6995.88
6996.01
6996.35
6996.81
6997.2
6997.69
6998.42
6999.33
7000.43
7001.73
7003.23
7004.88
7006.77
7008.88
7011.17
7013.69
7016.38
7019.28
7022.35
7025.58
7028.99
7032.56
7036.32
7040.2
7044.27
7048.5
7052.86
7057.34
7061.94
7066.65
7071.46
7076.39
7081.43
7086.56
7091.76
7097.03
7102.35
7107.73
7113.14
7118.61
7124.13
7129.67
7135.2
7140.67
7146.03
7151.25
7156.33
7161.72
7167.21
7171.4
7175.42
7185.68
7193.82
7201.65
7208.22
7215.48
7222.42
7229.48
7237.32
7244.59
7252.42
7259.59
7267.26
7274.47
7281.94
7288.97
7296.14
7303.12
7309.63
7317.69
7322.43
7330.27
7342.4
7352.32
7362.75
7372.38
7382.11
7391.36
7401.05
7411.09
7420.98
7430.88
7440.67
7450.14
7459.73
7469.01
7478.3
7488.57
7496
7506.7
7520.37
7531.43
7542.82
7553.97
7564.91
7576.21
7587.85
7599.22
7610.62
7621.9
7633.09
7644.25
7655.38
7666.37
7677.28
7688.02
7698.66
7709.14
7719.5
7729.72
7739.79
7749.7
7759.45
7769.03
7778.44
7787.68
7796.74
7805.59
7814.26
7822.74
7831.02
7839.11
7846.98
7854.64
7862.09
7869.33
7876.36
7883.16
7889.73
7896.09
7902.24
7908.17
7913.87
7919.38
7924.65
7929.72
7934.57
7939.21
7943.66
7947.92
7951.97
7955.83
7959.51
7963.02
7966.36
7969.53
7972.54
7975.4
7978.1
7980.67
7983.12
7985.45
7987.66
7989.77
7991.78
7993.7
7995.54
7997.29
7998.95
8000.51
8001.96
8003.3
8004.51
8005.6
8006.55
8007.37
8008.05
8008.57
8008.94
8009.16
8009.22
8009.1
8008.82
8008.37
8007.74
8006.93
8005.93
8004.76
8003.39
8001.84
8000.1
7998.17
7996.05
7993.74
7991.23
7988.53
7985.64
7982.56
7979.3
7975.85
7972.22
7968.41
7964.42
7960.25
7955.92
7951.43
7946.78
7941.97
7937.02
7931.92
7926.69
7921.33
7915.85
7910.25
7904.54
7898.73
7892.82
7886.83
7880.76
7874.63
7868.42
7862.17
7855.86
7849.51
7843.12
7836.72
7830.29
7823.86
7817.42
7810.97
7804.54
7798.12
7791.73
7785.36
7779.03
7772.73
7766.47
7760.26
7754.11
7748.02
7741.98
7736.01
7730.11
7724.28
7718.53
7712.85
7707.26
7701.75
7696.33
7690.99
7685.75
7680.59
7675.53
7670.57
7665.7
7660.92
7656.24
7651.67
7647.18
7642.8
7638.51
7634.33
7630.24
7626.25
7622.36
7618.57
7614.87
7611.27
7607.77
7604.37
7601.05
7597.83
7594.71
7591.67
7588.73
7585.87
7583.1
7580.42
7577.82
7575.31
7572.87
7570.52
7568.24
7566.04
7563.91
7561.86
7559.87
7557.95
7556.1
7554.31
7552.59
7550.92
7549.31
7547.76
7546.26
7544.81
7543.41
7542.06
7540.75
7539.49
7538.27
7537.09
7535.95
7534.84
7533.77
7532.73
7531.72
7530.74
7529.79
7528.87
7527.97
7527.1
7526.26
7525.45
7524.67
7523.92
7523.2
7522.52
7521.86
7521.24
7520.64
7520.08
7519.55
7519.05
7518.59
7518.15
7517.74
7517.37
7517.02
7516.7
7516.41
7516.15
7515.92
7515.72
7515.54
7515.39
7515.26
7515.16
7515.08
7515.03
7515
7514.99
7515
7515.04
7515.09
7515.17
7515.26
7515.37
7515.5
7515.65
7515.81
7515.99
7516.18
7516.38
7516.6
7516.83
7517.08
7517.33
7517.59
7517.87
7518.15
7518.44
7518.74
7519.04
7519.36
7519.67
7520
7520.33
7520.66
7520.99
7521.33
7521.68
7522.02
7522.37
7522.71
7523.06
7523.41
7523.76
7524.11
7524.45
7524.8
7525.15
7525.49
7525.83
7526.18
7526.52
7526.86
7527.2
7527.53
7527.87
7528.21
7528.56
7528.89
7529.24
7529.57
7529.92
7530.25
7530.61
7530.95
7531.33
7531.67
7531.97
7532.31
7532.69
7533.03
7533.63
7533.97
7534
7534.33
7534.54
7534.83
7535.12
7535.44
7535.81
7536.18
7536.61
7537.04
7537.53
7538.01
7538.54
7539.08
7539.75
7540.31
7541.12
7541.71
7542.19
7542.86
7543.5
7544.19
7544.95
7545.7
7546.56
7547.42
7548.33
7549.29
7550.27
7551.35
7552.39
7553.62
7554.72
7555.86
7557.01
7558.23
7559.5
7561.39
7562.65
7563.32
7564.51
7565.47
7566.61
7567.82
7569.02
7570.25
7571.52
7572.82
7574.15
7575.51
7576.91
7578.33
7579.79
7581.27
7582.77
7584.3
7585.85
7587.42
7589.02
7590.63
7592.26
7593.92
7595.58
7597.27
7598.97
7600.69
7602.42
7604.16
7605.92
7607.69
7609.47
7611.27
7613.08
7614.89
7616.72
7618.55
7620.4
7622.25
7624.11
7625.98
7627.86
7629.74
7631.63
7633.52
7635.42
7637.32
7639.23
7641.14
7643.05
7644.97
7646.89
7648.81
7650.72
7652.65
7654.57
7656.49
7658.4
7660.32
7662.24
7664.15
7666.06
7667.97
7669.87
7671.77
7673.67
7675.56
7677.44
7679.32
7681.2
7683.07
7684.93
7686.79
7688.64
7690.48
7692.31
7694.14
7695.96
7697.77
7699.58
7701.41
7703.2
7704.98
6936.17
6924.31
6916.82
6909.45
6902.47
6895.6
6888.86
6882.17
6875.58
6869.15
6862.88
6856.7
6850.43
6844.26
6838.58
6834.08
6830.7
6828.08
6825.54
6822.97
6820.2
6817.35
6814.52
6811.81
6809.16
6806.58
6804.17
6802.02
6800.37
6799.24
6798.52
6798.23
6798.33
6798.61
6799.05
6799.57
6800.16
6800.94
6801.93
6803.11
6804.46
6805.97
6807.69
6809.61
6811.74
6814.1
6816.62
6819.31
6822.22
6825.32
6828.58
6832.01
6835.63
6839.39
6843.3
6847.37
6851.61
6855.99
6860.5
6865.13
6869.88
6874.74
6879.72
6884.82
6890.02
6895.28
6900.58
6905.96
6911.38
6916.82
6922.33
6927.89
6933.49
6939.12
6944.72
6950.28
6955.81
6961.39
6967.12
6972.98
6978.76
6984.86
6990.83
6995.35
6999.69
7010.32
7018.88
7027.05
7034.28
7041.31
7048.78
7056.01
7064
7071.38
7079.23
7086.46
7094.05
7101.56
7108.92
7116.71
7124.84
7132.67
7140.29
7148.74
7153.91
7162.31
7175
7185.07
7195.93
7205.87
7215.75
7225.23
7234.77
7244.72
7254.4
7264.35
7274.12
7284.06
7294.45
7304.63
7314.49
7324.96
7332.81
7343.76
7357.79
7369.09
7380.64
7391.89
7402.9
7414.23
7425.82
7437.09
7448.36
7459.44
7470.44
7481.27
7492.02
7502.69
7513.19
7523.57
7533.81
7543.9
7553.84
7563.62
7573.23
7582.66
7591.91
7600.96
7609.83
7618.51
7627.01
7635.31
7643.39
7651.26
7658.92
7666.38
7673.62
7680.66
7687.47
7694.04
7700.4
7706.54
7712.46
7718.17
7723.67
7728.94
7734.01
7738.85
7743.5
7747.93
7752.19
7756.24
7760.1
7763.77
7767.27
7770.6
7773.77
7776.78
7779.64
7782.34
7784.91
7787.36
7789.68
7791.89
7794.01
7796.02
7797.94
7799.78
7801.52
7803.18
7804.75
7806.2
7807.54
7808.76
7809.85
7810.81
7811.63
7812.32
7812.85
7813.23
7813.45
7813.51
7813.41
7813.13
7812.69
7812.06
7811.26
7810.27
7809.09
7807.73
7806.19
7804.45
7802.52
7800.4
7798.08
7795.57
7792.88
7789.99
7786.91
7783.64
7780.18
7776.54
7772.73
7768.73
7764.56
7760.21
7755.71
7751.04
7746.22
7741.26
7736.15
7730.91
7725.53
7720.03
7714.41
7708.68
7702.85
7696.93
7690.92
7684.84
7678.68
7672.46
7666.18
7659.85
7653.48
7647.08
7640.66
7634.22
7627.76
7621.3
7614.84
7608.39
7601.96
7595.56
7589.17
7582.82
7576.5
7570.23
7564.01
7557.85
7551.74
7545.69
7539.71
7533.8
7527.96
7522.2
7516.51
7510.91
7505.4
7499.97
7494.62
7489.37
7484.22
7479.15
7474.18
7469.3
7464.52
7459.84
7455.26
7450.78
7446.39
7442.11
7437.92
7433.83
7429.84
7425.95
7422.16
7418.46
7414.87
7411.37
7407.96
7404.65
7401.43
7398.3
7395.27
7392.33
7389.47
7386.7
7384.02
7381.42
7378.91
7376.48
7374.12
7371.85
7369.65
7367.52
7365.47
7363.48
7361.57
7359.72
7357.93
7356.21
7354.54
7352.93
7351.38
7349.88
7348.44
7347.04
7345.69
7344.39
7343.13
7341.91
7340.73
7339.59
7338.49
7337.42
7336.38
7335.37
7334.4
7333.45
7332.52
7331.63
7330.76
7329.92
7329.12
7328.34
7327.59
7326.88
7326.19
7325.54
7324.92
7324.32
7323.77
7323.24
7322.74
7322.28
7321.84
7321.44
7321.06
7320.72
7320.4
7320.12
7319.86
7319.63
7319.43
7319.25
7319.1
7318.98
7318.88
7318.81
7318.75
7318.73
7318.72
7318.74
7318.77
7318.83
7318.91
7319.01
7319.12
7319.25
7319.4
7319.56
7319.74
7319.94
7320.14
7320.37
7320.6
7320.84
7321.1
7321.37
7321.64
7321.93
7322.22
7322.52
7322.83
7323.14
7323.46
7323.79
7324.12
7324.45
7324.79
7325.13
7325.47
7325.82
7326.16
7326.51
7326.86
7327.21
7327.56
7327.91
7328.26
7328.6
7328.95
7329.29
7329.64
7329.98
7330.31
7330.66
7330.99
7331.34
7331.67
7332.02
7332.35
7332.69
7333.02
7333.38
7333.71
7334.09
7334.41
7334.71
7335.04
7335.42
7335.74
7336.36
7336.68
7336.7
7337.01
7337.24
7337.54
7337.85
7338.16
7338.43
7338.78
7339.09
7339.47
7339.83
7340.21
7340.67
7341.11
7341.71
7342.19
7342.9
7343.42
7343.8
7344.39
7344.96
7345.59
7346.26
7346.96
7347.65
7348.45
7349.17
7350.08
7350.86
7351.91
7352.8
7353.97
7354.96
7356.03
7357.08
7358.24
7359.38
7361.32
7362.5
7363.19
7364.28
7365.38
7366.54
7367.8
7368.95
7370.11
7371.31
7372.54
7373.8
7375.09
7376.41
7377.76
7379.14
7380.54
7381.98
7383.44
7384.93
7386.44
7387.97
7389.53
7391.11
7392.71
7394.33
7395.96
7397.62
7399.29
7400.98
7402.69
7404.41
7406.14
7407.89
7409.65
7411.42
7413.21
7415.01
7416.81
7418.63
7420.46
7422.3
7424.15
7426
7427.87
7429.74
7431.62
7433.5
7435.39
7437.29
7439.19
7441.09
7443
7444.91
7446.83
7448.75
7450.67
7452.59
7454.51
7456.43
7458.36
7460.28
7462.2
7464.12
7466.04
7467.95
7469.86
7471.77
7473.68
7475.58
7477.48
7479.37
7481.26
7483.14
7485.02
7486.89
7488.75
7490.61
7492.46
7494.3
7496.14
7497.96
7499.79
7501.6
7503.41
7505.24
7507.03
7508.82
6737.2
6725.85
6718.56
6711.12
6704.17
6697.24
6690.42
6683.76
6677.24
6670.89
6664.79
6658.85
6653.02
6647.42
6642.26
6637.65
6633.9
6630.7
6627.69
6624.78
6621.91
6619.09
6616.28
6613.56
6611.01
6608.65
6606.46
6604.54
6603.03
6601.97
6601.28
6600.9
6600.75
6600.88
6601.16
6601.56
6602.15
6602.99
6604.05
6605.26
6606.63
6608.18
6609.99
6611.96
6614.12
6616.53
6619.06
6621.78
6624.71
6627.85
6631.14
6634.61
6638.28
6642.07
6646.02
6650.11
6654.37
6658.79
6663.34
6668.03
6672.83
6677.75
6682.81
6687.97
6693.21
6698.52
6703.89
6709.34
6714.85
6720.4
6725.99
6731.65
6737.35
6743.09
6748.87
6754.67
6760.46
6766.31
6772.22
6778.15
6784.28
6790.59
6797.02
6803.41
6810.12
6816.81
6822.91
6827.98
6832.77
6844.43
6852.7
6860.76
6868.06
6876.05
6883.35
6891.83
6899.32
6907.47
6915.13
6923.13
6931.13
6939.21
6947.5
6956.53
6964.95
6974.25
6982.27
6991
6996.58
7005.29
7018.25
7028.55
7039.55
7049.56
7059.28
7069.05
7079.18
7089.15
7099.57
7109.66
7120.17
7130.97
7141.6
7151.75
7162.46
7170.54
7181.6
7195.75
7207.12
7218.63
7229.87
7240.82
7252.05
7263.49
7274.57
7285.58
7296.29
7306.99
7317.44
7327.84
7338.09
7348.21
7358.17
7367.98
7377.61
7387.06
7396.33
7405.4
7414.29
7423
7431.51
7439.83
7447.92
7455.8
7463.47
7470.93
7478.18
7485.21
7492.02
7498.61
7504.97
7511.1
7517.02
7522.73
7528.22
7533.49
7538.55
7543.39
7548.03
7552.46
7556.7
7560.75
7564.61
7568.28
7571.77
7575.09
7578.26
7581.26
7584.12
7586.83
7589.4
7591.84
7594.17
7596.38
7598.5
7600.51
7602.43
7604.27
7606.01
7607.66
7609.22
7610.68
7612.02
7613.25
7614.34
7615.31
7616.14
7616.83
7617.37
7617.76
7617.99
7618.06
7617.97
7617.7
7617.27
7616.65
7615.85
7614.87
7613.7
7612.35
7610.81
7609.08
7607.15
7605.02
7602.7
7600.19
7597.5
7594.6
7591.52
7588.24
7584.77
7581.12
7577.3
7573.29
7569.11
7564.75
7560.22
7555.54
7550.7
7545.71
7540.59
7535.32
7529.92
7524.39
7518.75
7512.99
7507.14
7501.19
7495.16
7489.05
7482.86
7476.61
7470.3
7463.94
7457.55
7451.12
7444.67
7438.2
7431.72
7425.23
7418.74
7412.27
7405.82
7399.38
7392.97
7386.6
7380.26
7373.97
7367.73
7361.55
7355.42
7349.36
7343.36
7337.43
7331.58
7325.8
7320.1
7314.49
7308.96
7303.52
7298.17
7292.91
7287.75
7282.67
7277.7
7272.82
7268.03
7263.34
7258.76
7254.27
7249.89
7245.6
7241.41
7237.32
7233.33
7229.44
7225.65
7221.95
7218.36
7214.86
7211.45
7208.14
7204.92
7201.8
7198.77
7195.82
7192.97
7190.21
7187.53
7184.93
7182.42
7179.99
7177.63
7175.36
7173.16
7171.04
7168.99
7167
7165.09
7163.24
7161.45
7159.73
7158.07
7156.46
7154.91
7153.42
7151.97
7150.58
7149.23
7147.93
7146.68
7145.46
7144.29
7143.15
7142.05
7140.98
7139.95
7138.94
7137.97
7137.02
7136.1
7135.21
7134.35
7133.51
7132.71
7131.94
7131.19
7130.48
7129.8
7129.15
7128.53
7127.94
7127.39
7126.86
7126.37
7125.91
7125.48
7125.08
7124.71
7124.37
7124.05
7123.77
7123.52
7123.29
7123.09
7122.92
7122.77
7122.65
7122.56
7122.49
7122.44
7122.42
7122.42
7122.44
7122.48
7122.54
7122.62
7122.72
7122.84
7122.97
7123.12
7123.29
7123.47
7123.67
7123.88
7124.11
7124.34
7124.59
7124.85
7125.12
7125.4
7125.69
7125.98
7126.29
7126.6
7126.92
7127.24
7127.57
7127.9
7128.24
7128.58
7128.92
7129.27
7129.62
7129.97
7130.32
7130.67
7131.02
7131.37
7131.72
7132.07
7132.42
7132.76
7133.11
7133.45
7133.8
7134.13
7134.47
7134.81
7135.13
7135.47
7135.78
7136.15
7136.47
7136.85
7137.16
7137.47
7137.78
7138.16
7138.47
7139.08
7139.39
7139.4
7139.71
7139.92
7140.22
7140.52
7140.82
7141.07
7141.39
7141.66
7141.98
7142.29
7142.6
7142.98
7143.38
7143.85
7144.25
7144.86
7145.29
7145.6
7146.09
7146.59
7147.12
7147.73
7148.31
7148.98
7149.61
7150.34
7151.03
7151.86
7152.64
7153.59
7154.46
7155.35
7156.31
7157.25
7158.33
7159.36
7161.25
7162.35
7163.04
7164.05
7165.11
7166.29
7167.61
7168.8
7169.93
7171.11
7172.29
7173.49
7174.73
7175.98
7177.27
7178.58
7179.92
7181.29
7182.69
7184.11
7185.56
7187.03
7188.53
7190.05
7191.59
7193.16
7194.74
7196.35
7197.98
7199.62
7201.28
7202.96
7204.65
7206.36
7208.09
7209.82
7211.58
7213.34
7215.12
7216.91
7218.71
7220.52
7222.35
7224.18
7226.02
7227.87
7229.73
7231.6
7233.47
7235.36
7237.24
7239.14
7241.04
7242.94
7244.85
7246.76
7248.68
7250.6
7252.52
7254.44
7256.37
7258.29
7260.22
7262.14
7264.07
7265.99
7267.92
7269.84
7271.75
7273.67
7275.58
7277.49
7279.4
7281.3
7283.19
7285.08
7286.97
7288.85
7290.72
7292.58
7294.44
7296.3
7298.14
7299.98
7301.81
7303.63
7305.45
7307.26
7309.08
7310.88
7312.66
6538.41
6527.41
6520.21
6512.61
6505.5
6498.56
6491.71
6485.03
6478.57
6472.34
6466.42
6460.62
6454.97
6449.6
6444.57
6440.08
6436.1
6432.52
6429.21
6426.05
6423.02
6420.12
6417.37
6414.78
6412.34
6410.09
6408.07
6406.29
6404.86
6403.82
6403.06
6402.6
6402.39
6402.39
6402.61
6403.05
6403.7
6404.58
6405.66
6406.9
6408.3
6409.89
6411.72
6413.74
6415.96
6418.4
6420.99
6423.78
6426.73
6429.9
6433.25
6436.77
6440.48
6444.33
6448.33
6452.47
6456.77
6461.23
6465.84
6470.58
6475.45
6480.45
6485.58
6490.8
6496.1
6501.49
6506.96
6512.52
6518.15
6523.81
6529.53
6535.3
6541.13
6547
6552.93
6558.92
6564.95
6571.03
6577.17
6583.37
6589.65
6596.01
6602.44
6609
6615.78
6622.76
6629.62
6636.42
6643.25
6649.85
6655.07
6660.41
6672.59
6680.93
6688.97
6696.72
6704.83
6712.5
6721.29
6729.23
6737.92
6746.11
6754.6
6763.02
6771.54
6780.25
6789.64
6798.49
6807.72
6816.31
6825.57
6831.55
6840.16
6852.89
6863.3
6874.42
6884.64
6894.67
6904.79
6915.31
6925.7
6936.42
6946.84
6957.59
6968.67
6979.48
6989.84
7000.69
7008.88
7020.06
7034.26
7045.55
7057.01
7067.96
7078.88
7089.45
7100.21
7111.16
7121.74
7132.22
7142.5
7152.63
7162.62
7172.49
7182.15
7191.64
7200.94
7210.04
7218.96
7227.7
7236.23
7244.56
7252.67
7260.57
7268.26
7275.73
7282.99
7290.02
7296.84
7303.43
7309.8
7315.93
7321.85
7327.56
7333.03
7338.3
7343.35
7348.2
7352.83
7357.25
7361.49
7365.53
7369.38
7373.05
7376.54
7379.85
7383.01
7386.02
7388.87
7391.59
7394.16
7396.61
7398.94
7401.15
7403.27
7405.28
7407.21
7409.04
7410.78
7412.43
7413.98
7415.43
7416.77
7418
7419.1
7420.07
7420.91
7421.6
7422.15
7422.56
7422.8
7422.88
7422.8
7422.54
7422.12
7421.51
7420.72
7419.74
7418.59
7417.25
7415.71
7413.98
7412.05
7409.93
7407.61
7405.1
7402.39
7399.5
7396.4
7393.11
7389.63
7385.97
7382.13
7378.11
7373.91
7369.53
7364.98
7360.27
7355.41
7350.39
7345.23
7339.94
7334.5
7328.94
7323.27
7317.48
7311.59
7305.61
7299.54
7293.38
7287.16
7280.86
7274.52
7268.13
7261.7
7255.24
7248.75
7242.24
7235.72
7229.19
7222.67
7216.17
7209.68
7203.21
7196.77
7190.37
7184
7177.69
7171.42
7165.21
7159.06
7152.97
7146.95
7141
7135.13
7129.34
7123.62
7117.99
7112.45
7106.99
7101.63
7096.36
7091.18
7086.1
7081.12
7076.23
7071.44
7066.75
7062.16
7057.67
7053.28
7048.99
7044.8
7040.71
7036.71
7032.82
7029.03
7025.34
7021.74
7018.24
7014.84
7011.52
7008.31
7005.19
7002.16
6999.22
6996.37
6993.6
6990.93
6988.33
6985.82
6983.39
6981.04
6978.77
6976.57
6974.45
6972.4
6970.42
6968.51
6966.66
6964.88
6963.16
6961.5
6959.9
6958.35
6956.86
6955.42
6954.03
6952.69
6951.39
6950.14
6948.92
6947.75
6946.62
6945.52
6944.46
6943.42
6942.42
6941.45
6940.51
6939.6
6938.71
6937.85
6937.03
6936.23
6935.46
6934.72
6934.02
6933.34
6932.7
6932.08
6931.5
6930.95
6930.43
6929.94
6929.48
6929.06
6928.66
6928.3
6927.96
6927.65
6927.38
6927.13
6926.91
6926.71
6926.55
6926.41
6926.29
6926.2
6926.14
6926.09
6926.07
6926.08
6926.1
6926.15
6926.22
6926.3
6926.41
6926.53
6926.67
6926.83
6927
6927.19
6927.39
6927.6
6927.83
6928.07
6928.33
6928.59
6928.86
6929.15
6929.44
6929.74
6930.05
6930.36
6930.68
6931.01
6931.34
6931.68
6932.02
6932.37
6932.71
6933.06
6933.41
6933.77
6934.12
6934.47
6934.82
6935.18
6935.53
6935.88
6936.23
6936.58
6936.92
6937.26
6937.6
6937.92
6938.27
6938.58
6938.95
6939.26
6939.64
6939.95
6940.25
6940.56
6940.93
6941.23
6941.85
6942.15
6942.14
6942.44
6942.64
6942.94
6943.21
6943.51
6943.73
6944.04
6944.27
6944.59
6944.86
6945.16
6945.46
6945.87
6946.18
6946.7
6947.02
6947.18
6947.57
6947.9
6948.37
6948.79
6949.33
6949.81
6950.38
6950.92
6951.55
6952.15
6952.86
6953.55
6954.35
6955.16
6955.82
6956.79
6957.33
6958.6
6959.43
6961.31
6962.36
6963
6963.96
6964.99
6966.12
6967.34
6968.48
6969.61
6970.78
6971.95
6973.13
6974.34
6975.56
6976.8
6978.06
6979.35
6980.66
6982
6983.36
6984.75
6986.17
6987.6
6989.07
6990.56
6992.07
6993.6
6995.15
6996.73
6998.32
6999.94
7001.57
7003.22
7004.89
7006.58
7008.28
7009.99
7011.73
7013.47
7015.23
7017
7018.78
7020.58
7022.39
7024.2
7026.03
7027.87
7029.72
7031.57
7033.44
7035.31
7037.19
7039.07
7040.97
7042.86
7044.77
7046.68
7048.59
7050.51
7052.43
7054.35
7056.28
7058.2
7060.13
7062.06
7063.99
7065.92
7067.85
7069.78
7071.71
7073.64
7075.56
7077.48
7079.4
7081.31
7083.22
7085.12
7087.02
7088.91
7090.8
7092.68
7094.56
7096.43
7098.29
7100.14
7101.99
7103.83
7105.66
7107.49
7109.31
7111.12
7112.95
7114.74
7116.53
6339.59
6328.85
6321.53
6313.89
6306.61
6299.56
6292.65
6285.89
6279.38
6273.17
6267.33
6261.68
6256.21
6251.01
6246.13
6241.59
6237.41
6233.61
6230.07
6226.74
6223.62
6220.68
6217.93
6215.38
6213.04
6210.91
6209
6207.38
6206.01
6204.95
6204.18
6203.65
6203.4
6203.39
6203.62
6204.1
6204.79
6205.69
6206.76
6208
6209.43
6211.09
6212.97
6215.06
6217.32
6219.77
6222.44
6225.27
6228.28
6231.49
6234.91
6238.5
6242.25
6246.17
6250.24
6254.44
6258.79
6263.3
6267.98
6272.8
6277.75
6282.83
6288.03
6293.33
6298.72
6304.22
6309.81
6315.48
6321.23
6327.04
6332.9
6338.8
6344.77
6350.78
6356.88
6363.04
6369.27
6375.56
6381.9
6388.33
6394.83
6401.41
6408.07
6414.82
6421.65
6428.53
6435.44
6442.39
6449.53
6456.79
6463.94
6471.19
6478.07
6483.57
6489.41
6502.46
6510.82
6519.05
6527.08
6535.57
6543.64
6552.91
6561.27
6570.42
6579.07
6588.13
6596.8
6605.88
6614.48
6623.69
6632.99
6642.31
6651.28
6660.76
6666.98
6675.82
6688.7
6699.32
6710.76
6721.26
6731.6
6741.99
6752.76
6763.38
6774.29
6784.86
6795.75
6806.87
6817.74
6828.16
6839.01
6847.24
6858.48
6872.26
6883.6
6894.94
6905.22
6915.96
6926.11
6936.57
6947.11
6957.3
6967.34
6977.21
6986.89
6996.41
7005.76
7014.91
7023.87
7032.64
7041.2
7049.54
7057.68
7065.61
7073.31
7080.8
7088.07
7095.1
7101.92
7108.52
7114.9
7121.04
7126.96
7132.66
7138.13
7143.39
7148.44
7153.28
7157.91
7162.33
7166.56
7170.59
7174.44
7178.11
7181.6
7184.91
7188.07
7191.08
7193.93
7196.65
7199.23
7201.69
7204.02
7206.24
7208.35
7210.37
7212.29
7214.12
7215.86
7217.5
7219.04
7220.48
7221.81
7223.04
7224.14
7225.12
7225.96
7226.65
7227.22
7227.63
7227.89
7227.98
7227.91
7227.67
7227.25
7226.65
7225.87
7224.91
7223.76
7222.43
7220.9
7219.17
7217.24
7215.12
7212.8
7210.29
7207.58
7204.67
7201.56
7198.26
7194.77
7191.1
7187.23
7183.18
7178.96
7174.56
7169.99
7165.25
7160.35
7155.3
7150.1
7144.76
7139.28
7133.68
7127.96
7122.13
7116.2
7110.17
7104.05
7097.85
7091.57
7085.24
7078.84
7072.4
7065.93
7059.42
7052.88
7046.32
7039.76
7033.19
7026.63
7020.08
7013.55
7007.04
7000.56
6994.12
6987.72
6981.37
6975.07
6968.83
6962.65
6956.53
6950.48
6944.51
6938.61
6932.8
6927.07
6921.42
6915.85
6910.38
6905
6899.72
6894.53
6889.43
6884.44
6879.54
6874.74
6870.05
6865.45
6860.95
6856.56
6852.27
6848.07
6843.98
6839.99
6836.09
6832.3
6828.61
6825.01
6821.51
6818.11
6814.8
6811.59
6808.47
6805.44
6802.5
6799.65
6796.89
6794.22
6791.63
6789.12
6786.69
6784.34
6782.07
6779.88
6777.76
6775.71
6773.73
6771.82
6769.98
6768.2
6766.48
6764.83
6763.23
6761.69
6760.2
6758.76
6757.37
6756.04
6754.74
6753.49
6752.28
6751.12
6749.99
6748.89
6747.83
6746.81
6745.81
6744.84
6743.91
6743
6742.12
6741.27
6740.46
6739.67
6738.9
6738.17
6737.47
6736.81
6736.17
6735.56
6734.99
6734.44
6733.93
6733.45
6733
6732.58
6732.19
6731.83
6731.5
6731.2
6730.93
6730.69
6730.47
6730.29
6730.13
6729.99
6729.88
6729.8
6729.74
6729.7
6729.69
6729.7
6729.73
6729.79
6729.86
6729.95
6730.06
6730.19
6730.34
6730.5
6730.68
6730.87
6731.08
6731.3
6731.54
6731.78
6732.04
6732.31
6732.59
6732.88
6733.18
6733.48
6733.8
6734.12
6734.45
6734.78
6735.12
6735.46
6735.8
6736.15
6736.5
6736.86
6737.21
6737.57
6737.93
6738.28
6738.64
6738.99
6739.36
6739.7
6740.06
6740.4
6740.75
6741.08
6741.44
6741.76
6742.13
6742.45
6742.71
6743.05
6743.31
6743.72
6743.98
6744.62
6744.9
6744.9
6745.18
6745.38
6745.67
6745.94
6746.21
6746.42
6746.71
6746.93
6747.22
6747.46
6747.72
6747.99
6748.35
6748.62
6749.06
6749.35
6749.39
6749.75
6749.97
6750.37
6750.7
6751.15
6751.53
6752.01
6752.45
6752.99
6753.48
6754.12
6754.67
6755.44
6756.06
6756.78
6757.45
6758.21
6758.99
6760.56
6761.46
6762.05
6762.92
6763.79
6764.81
6765.93
6767.12
6768.25
6769.32
6770.45
6771.57
6772.72
6773.9
6775.1
6776.31
6777.54
6778.79
6780.05
6781.34
6782.66
6783.99
6785.35
6786.74
6788.15
6789.58
6791.04
6792.52
6794.02
6795.54
6797.09
6798.66
6800.25
6801.85
6803.48
6805.12
6806.78
6808.46
6810.15
6811.86
6813.59
6815.33
6817.08
6818.84
6820.62
6822.41
6824.21
6826.03
6827.85
6829.69
6831.53
6833.38
6835.24
6837.11
6838.99
6840.88
6842.77
6844.67
6846.57
6848.48
6850.4
6852.31
6854.24
6856.16
6858.09
6860.02
6861.96
6863.89
6865.83
6867.77
6869.7
6871.64
6873.57
6875.5
6877.44
6879.36
6881.29
6883.21
6885.13
6887.04
6888.95
6890.86
6892.75
6894.65
6896.53
6898.41
6900.29
6902.15
6904.01
6905.86
6907.7
6909.54
6911.36
6913.18
6914.99
6916.82
6918.62
6920.4
6140.47
6129.76
6122.32
6114.64
6107.26
6100.1
6093.13
6086.35
6079.85
6073.66
6067.77
6062.14
6056.71
6051.56
6046.74
6042.18
6037.92
6033.97
6030.31
6026.9
6023.69
6020.71
6017.96
6015.44
6013.14
6011.06
6009.22
6007.66
6006.36
6005.34
6004.57
6004.03
6003.79
6003.79
6004.05
6004.56
6005.3
6006.2
6007.28
6008.56
6010.04
6011.75
6013.7
6015.86
6018.18
6020.67
6023.37
6026.25
6029.36
6032.65
6036.12
6039.8
6043.63
6047.61
6051.76
6056.04
6060.47
6065.03
6069.77
6074.66
6079.7
6084.89
6090.18
6095.58
6101.08
6106.69
6112.39
6118.19
6124.07
6130.03
6136.04
6142.11
6148.23
6154.4
6160.65
6166.99
6173.41
6179.91
6186.46
6193.07
6199.77
6206.56
6213.38
6220.31
6227.34
6234.43
6241.57
6248.73
6255.93
6263.23
6270.51
6277.94
6285.55
6293.08
6300.72
6307.93
6313.81
6319.99
6333.41
6342.27
6350.84
6359.3
6368.14
6376.5
6386.26
6394.92
6404.43
6413.34
6422.56
6431.52
6440.69
6449.68
6458.91
6468.54
6477.89
6487.15
6496.94
6503.43
6512.57
6525.63
6536.51
6548.26
6559.02
6569.63
6580.19
6591.06
6601.87
6612.87
6623.62
6634.55
6645.92
6656.65
6667.68
6677.89
6688.39
6696.43
6707.09
6720.44
6731.1
6741.59
6751.94
6761.88
6771.93
6782.07
6791.82
6801.41
6810.8
6819.98
6828.97
6837.79
6846.38
6854.75
6862.92
6870.88
6878.62
6886.13
6893.41
6900.46
6907.29
6913.9
6920.29
6926.44
6932.36
6938.05
6943.52
6948.78
6953.83
6958.67
6963.3
6967.72
6971.93
6975.97
6979.82
6983.49
6986.97
6990.3
6993.46
6996.46
6999.33
7002.05
7004.64
7007.1
7009.43
7011.66
7013.78
7015.79
7017.71
7019.54
7021.27
7022.9
7024.43
7025.86
7027.18
7028.4
7029.5
7030.48
7031.32
7032.02
7032.59
7033.01
7033.28
7033.38
7033.32
7033.09
7032.68
7032.09
7031.32
7030.38
7029.24
7027.91
7026.37
7024.65
7022.73
7020.61
7018.29
7015.77
7013.05
7010.13
7007.01
7003.7
7000.2
6996.5
6992.6
6988.53
6984.27
6979.84
6975.23
6970.46
6965.52
6960.43
6955.18
6949.79
6944.27
6938.62
6932.84
6926.96
6920.97
6914.88
6908.7
6902.45
6896.12
6889.72
6883.27
6876.77
6870.23
6863.66
6857.07
6850.46
6843.84
6837.22
6830.6
6824
6817.42
6810.87
6804.34
6797.86
6791.42
6785.03
6778.68
6772.4
6766.19
6760.04
6753.96
6747.95
6742.03
6736.19
6730.43
6724.76
6719.18
6713.68
6708.29
6702.98
6697.78
6692.67
6687.66
6682.75
6677.95
6673.24
6668.64
6664.13
6659.73
6655.43
6651.24
6647.14
6643.15
6639.26
6635.46
6631.77
6628.17
6624.68
6621.28
6617.97
6614.76
6611.64
6608.61
6605.67
6602.83
6600.07
6597.4
6594.81
6592.3
6589.88
6587.53
6585.26
6583.07
6580.95
6578.91
6576.94
6575.03
6573.19
6571.41
6569.7
6568.05
6566.45
6564.91
6563.43
6562
6560.61
6559.28
6557.99
6556.75
6555.54
6554.38
6553.25
6552.16
6551.11
6550.09
6549.1
6548.14
6547.22
6546.32
6545.45
6544.61
6543.8
6543.02
6542.27
6541.55
6540.86
6540.2
6539.57
6538.97
6538.41
6537.87
6537.37
6536.89
6536.45
6536.04
6535.66
6535.31
6534.99
6534.7
6534.43
6534.2
6533.99
6533.81
6533.66
6533.53
6533.43
6533.36
6533.31
6533.28
6533.27
6533.29
6533.33
6533.39
6533.47
6533.57
6533.69
6533.83
6533.98
6534.15
6534.34
6534.54
6534.75
6534.98
6535.22
6535.48
6535.74
6536.02
6536.31
6536.6
6536.91
6537.22
6537.54
6537.87
6538.2
6538.54
6538.88
6539.23
6539.58
6539.93
6540.29
6540.65
6541.01
6541.37
6541.73