/*--------------------------------*- C++ -*----------------------------------*\
| =========                 |                                                 |
| \\      /  F ield         | OpenFOAM: The Open Source CFD Toolbox           |
|  \\    /   O peration     | Version:  v2006                                 |
|   \\  /    A nd           | Website:  www.openfoam.com                      |
|    \\/     M anipulation  |                                                 |
\*---------------------------------------------------------------------------*/
FoamFile
{
    version     2.0;
    format      ascii;
    class       surfaceScalarField;
    location    "8.2";
    object      phi;
}
// * * * * * * * * * * * * * * * * * * * * * * * * * * * * * * * * * * * * * //

dimensions      [0 3 -1 0 0 0 0];
oriented        oriented;


internalField   nonuniform List<scalar> 
65390
(
-5.85186e-05
1.24962e-05
-6.2144e-05
3.62848e-06
-6.42608e-05
2.1195e-06
-6.2609e-05
-1.64949e-06
-5.7073e-05
-5.53415e-06
-4.87266e-05
-8.34489e-06
-3.99445e-05
-8.78093e-06
-3.24478e-05
-7.49576e-06
-2.63978e-05
-6.04929e-06
-2.1079e-05
-5.3183e-06
-1.56433e-05
-5.43528e-06
-1.00354e-05
-5.60755e-06
-4.80659e-06
-5.22852e-06
-5.48164e-07
-4.25822e-06
1.64435e-06
-2.19235e-06
4.12775e-07
1.2317e-06
-5.24281e-06
5.65569e-06
-1.28952e-05
7.6525e-06
-2.01432e-05
7.24803e-06
-2.52997e-05
5.15654e-06
-2.78172e-05
2.51754e-06
-2.85592e-05
7.42001e-07
-2.77964e-05
-7.62746e-07
-2.59142e-05
-1.88214e-06
-2.3329e-05
-2.58518e-06
-2.05782e-05
-2.7508e-06
-1.81092e-05
-2.46892e-06
-1.63166e-05
-1.79257e-06
-1.56538e-05
-6.62828e-07
-1.62437e-05
5.89959e-07
-1.81646e-05
1.92092e-06
-2.14153e-05
3.2507e-06
-2.5558e-05
4.1427e-06
-3.0272e-05
4.71403e-06
-3.54047e-05
5.13278e-06
-3.99133e-05
4.50858e-06
-4.28805e-05
2.96725e-06
-4.50895e-05
2.20902e-06
-4.74266e-05
2.33714e-06
-4.98854e-05
2.4588e-06
-5.16747e-05
1.7893e-06
-5.20886e-05
4.1391e-07
-5.17705e-05
-3.18066e-07
-5.13061e-05
-4.64338e-07
-5.11474e-05
-1.5871e-07
-5.16569e-05
5.09557e-07
-5.24337e-05
7.76764e-07
-5.30718e-05
6.38142e-07
-5.30501e-05
-2.16773e-08
-5.23399e-05
-7.10111e-07
-5.15139e-05
-8.26003e-07
-5.10812e-05
-4.32632e-07
-5.11955e-05
1.14302e-07
-5.15007e-05
3.05228e-07
-5.17161e-05
2.15405e-07
-5.15041e-05
-2.1187e-07
-5.08314e-05
-6.72655e-07
-4.98516e-05
-9.79824e-07
-4.86564e-05
-1.19508e-06
-4.7217e-05
-1.43939e-06
-4.55568e-05
-1.66012e-06
-4.40039e-05
-1.55284e-06
-4.29394e-05
-1.06447e-06
-4.24409e-05
-4.98477e-07
-4.22723e-05
-1.68464e-07
-4.22084e-05
-6.39105e-08
-4.19804e-05
-2.27911e-07
-4.16827e-05
-2.97642e-07
-4.14905e-05
-1.92113e-07
-4.12255e-05
-2.64926e-07
-4.05602e-05
-6.65177e-07
-3.93558e-05
-1.20435e-06
-3.75121e-05
-1.84361e-06
-3.50978e-05
-2.41426e-06
-3.20732e-05
-3.02455e-06
-2.82981e-05
-3.775e-06
-2.37503e-05
-4.54771e-06
-1.78596e-05
-5.89066e-06
-1.31227e-05
-4.73682e-06
-1.15718e-05
-1.55087e-06
-1.06791e-05
-8.92648e-07
-1.10729e-05
3.93893e-07
-1.11548e-05
8.19435e-08
-1.16493e-05
4.94536e-07
-1.24217e-05
7.72488e-07
-1.28546e-05
4.32889e-07
-1.35116e-05
6.5701e-07
-1.42258e-05
7.14292e-07
-1.49125e-05
6.86771e-07
-1.55184e-05
6.05868e-07
-1.59675e-05
4.49126e-07
-1.62178e-05
2.5037e-07
-1.63767e-05
1.58982e-07
-1.65328e-05
1.56133e-07
-1.67284e-05
1.95668e-07
-1.69722e-05
2.43798e-07
-1.74018e-05
4.29624e-07
-1.79515e-05
5.49806e-07
-1.83821e-05
4.30576e-07
-1.88063e-05
4.24245e-07
-1.9324e-05
5.17796e-07
-1.97195e-05
3.95524e-07
-1.97315e-05
1.1975e-08
-1.96163e-05
-1.15158e-07
-1.96933e-05
7.70223e-08
-1.983e-05
1.36766e-07
-1.99664e-05
1.36424e-07
-2.00666e-05
1.00224e-07
-2.00727e-05
6.09218e-09
-1.99298e-05
-1.4291e-07
-1.97213e-05
-2.08438e-07
-1.94611e-05
-2.60181e-07
-1.91357e-05
-3.25377e-07
-1.87974e-05
-3.38233e-07
-1.82861e-05
-5.11227e-07
-1.75893e-05
-6.96774e-07
-1.64543e-05
-1.13496e-06
-1.55457e-05
-9.0858e-07
-1.52172e-05
-3.28485e-07
-1.51269e-05
-9.02584e-08
-1.51955e-05
6.86703e-08
-1.51614e-05
-3.40787e-08
-1.52814e-05
1.19972e-07
-1.53631e-05
8.17733e-08
-1.5318e-05
-4.51056e-08
-1.53047e-05
-1.32259e-08
-1.52856e-05
-1.90739e-08
-1.5245e-05
-4.05825e-08
-1.52072e-05
-3.77528e-08
-1.51486e-05
-5.86459e-08
-1.50682e-05
-8.03835e-08
-1.49869e-05
-8.12741e-08
-1.49065e-05
-8.03284e-08
-1.4824e-05
-8.25028e-08
-1.47267e-05
-9.72284e-08
-1.46042e-05
-1.22473e-07
-1.44716e-05
-1.32531e-07
-1.43363e-05
-1.35281e-07
-1.42009e-05
-1.35417e-07
-1.40598e-05
-1.41087e-07
-1.39073e-05
-1.52436e-07
-1.37439e-05
-1.63331e-07
-1.35743e-05
-1.69634e-07
-1.34092e-05
-1.65063e-07
-1.32451e-05
-1.64013e-07
-1.30715e-05
-1.73567e-07
-1.28849e-05
-1.86576e-07
-1.26806e-05
-2.04293e-07
-1.24677e-05
-2.12876e-07
-1.22597e-05
-2.07953e-07
-1.20609e-05
-1.9875e-07
-1.18553e-05
-2.055e-07
-1.16228e-05
-2.32516e-07
-1.13739e-05
-2.48879e-07
-1.1125e-05
-2.48809e-07
-1.08761e-05
-2.48927e-07
-1.06245e-05
-2.51569e-07
-1.0364e-05
-2.60402e-07
-1.00937e-05
-2.70292e-07
-9.81284e-06
-2.80832e-07
-9.52385e-06
-2.88956e-07
-9.2255e-06
-2.98315e-07
-8.92252e-06
-3.02938e-07
-8.61961e-06
-3.02869e-07
-8.30466e-06
-3.14912e-07
-7.97286e-06
-3.3177e-07
-7.63641e-06
-3.36408e-07
-7.30721e-06
-3.29167e-07
-6.9722e-06
-3.34982e-07
-6.61683e-06
-3.55339e-07
-6.24636e-06
-3.70434e-07
-5.87684e-06
-3.69493e-07
-5.5189e-06
-3.57909e-07
-5.15674e-06
-3.62139e-07
-4.77153e-06
-3.85185e-07
-4.36925e-06
-4.02253e-07
-3.95748e-06
-4.11744e-07
-3.54639e-06
-4.11062e-07
-3.15124e-06
-3.95128e-07
-2.76489e-06
-3.86326e-07
-2.37003e-06
-3.94833e-07
-1.96701e-06
-4.02993e-07
-1.54951e-06
-4.17463e-07
-1.12588e-06
-4.23606e-07
-7.08811e-07
-4.17032e-07
-3.03911e-07
-4.04866e-07
8.06622e-08
-3.84538e-07
4.58678e-07
-3.7798e-07
8.41048e-07
-3.82334e-07
1.22463e-06
-3.8355e-07
1.5988e-06
-3.74131e-07
1.95609e-06
-3.57253e-07
2.30159e-06
-3.45465e-07
2.64173e-06
-3.40117e-07
2.98314e-06
-3.41382e-07
3.32667e-06
-3.435e-07
3.66823e-06
-3.41543e-07
4.00073e-06
-3.32487e-07
4.31664e-06
-3.15898e-07
4.62176e-06
-3.05115e-07
4.92462e-06
-3.02861e-07
5.23155e-06
-3.0694e-07
5.53782e-06
-3.06288e-07
5.8369e-06
-2.99096e-07
6.12626e-06
-2.89393e-07
6.40677e-06
-2.80543e-07
6.68418e-06
-2.77452e-07
6.9614e-06
-2.77268e-07
7.23326e-06
-2.7191e-07
7.49107e-06
-2.57873e-07
7.73905e-06
-2.48044e-07
7.98885e-06
-2.49864e-07
8.23821e-06
-2.49422e-07
8.48295e-06
-2.4481e-07
8.72046e-06
-2.3758e-07
8.94472e-06
-2.24327e-07
9.15637e-06
-2.11713e-07
9.3627e-06
-2.06403e-07
9.56852e-06
-2.05878e-07
9.77176e-06
-2.03302e-07
9.96896e-06
-1.97256e-07
1.01578e-05
-1.88853e-07
1.03334e-05
-1.75699e-07
1.04979e-05
-1.64576e-07
1.06556e-05
-1.57717e-07
1.0809e-05
-1.53465e-07
1.09581e-05
-1.49096e-07
1.11006e-05
-1.4258e-07
1.12343e-05
-1.33658e-07
1.13547e-05
-1.20501e-07
1.14644e-05
-1.09719e-07
1.1567e-05
-1.02616e-07
1.16646e-05
-9.76342e-08
1.17569e-05
-9.2319e-08
1.18412e-05
-8.43435e-08
1.1916e-05
-7.47468e-08
1.19815e-05
-6.55825e-08
1.20384e-05
-5.68389e-08
1.20861e-05
-4.77583e-08
1.21251e-05
-3.89941e-08
1.21558e-05
-3.07067e-08
1.21801e-05
-2.43488e-08
1.21995e-05
-1.94087e-08
1.2212e-05
-1.24974e-08
1.22173e-05
-5.26627e-09
1.22133e-05
3.90541e-09
1.21976e-05
1.56811e-08
1.2176e-05
2.16376e-08
1.21519e-05
2.41262e-08
1.21225e-05
2.93354e-08
1.20864e-05
3.60892e-08
1.20425e-05
4.38808e-08
1.19899e-05
5.26817e-08
1.19313e-05
5.85519e-08
1.18683e-05
6.29595e-08
1.18012e-05
6.70881e-08
1.17293e-05
7.19618e-08
1.16508e-05
7.84499e-08
1.15667e-05
8.41531e-08
1.14773e-05
8.93595e-08
1.13836e-05
9.36987e-08
1.12872e-05
9.65044e-08
1.11873e-05
9.99123e-08
1.10823e-05
1.04981e-07
1.09705e-05
1.11821e-07
1.08517e-05
1.18757e-07
1.07309e-05
1.20883e-07
1.06099e-05
1.21031e-07
1.0486e-05
1.23875e-07
1.03586e-05
1.27457e-07
1.02276e-05
1.31008e-07
1.0092e-05
1.3554e-07
9.95085e-06
1.4121e-07
9.80574e-06
1.45126e-07
9.65895e-06
1.46809e-07
9.5112e-06
1.47759e-07
9.36137e-06
1.49846e-07
9.20886e-06
1.52517e-07
9.05416e-06
1.54716e-07
8.89739e-06
1.5677e-07
8.7361e-06
1.613e-07
8.5692e-06
1.669e-07
8.40096e-06
1.68242e-07
8.23356e-06
1.67395e-07
8.06479e-06
1.68762e-07
7.89331e-06
1.71476e-07
7.71979e-06
1.73502e-07
7.54401e-06
1.75758e-07
7.36462e-06
1.79371e-07
7.18258e-06
1.8202e-07
6.99959e-06
1.82963e-07
6.81635e-06
1.83208e-07
6.63195e-06
1.84365e-07
6.44612e-06
1.85794e-07
6.25898e-06
1.87098e-07
6.06909e-06
1.89847e-07
5.87712e-06
1.91926e-07
5.68446e-06
1.92617e-07
5.49157e-06
1.92855e-07
5.29851e-06
1.93017e-07
5.10542e-06
1.93048e-07
4.91064e-06
1.94743e-07
4.71413e-06
1.96464e-07
4.51782e-06
1.96281e-07
4.32217e-06
1.9561e-07
4.12748e-06
1.94658e-07
3.93252e-06
1.94919e-07
3.73759e-06
1.94902e-07
3.54362e-06
1.93937e-07
3.35122e-06
1.92369e-07
3.1606e-06
1.90602e-07
2.97077e-06
1.89799e-07
2.78083e-06
1.89924e-07
2.59173e-06
1.89081e-07
2.40528e-06
1.86436e-07
2.2214e-06
1.8387e-07
2.03918e-06
1.82209e-07
1.85857e-06
1.8059e-07
1.67955e-06
1.79013e-07
1.5023e-06
1.77249e-07
1.32687e-06
1.7542e-07
1.15332e-06
1.73538e-07
9.81495e-07
1.71822e-07
8.11148e-07
1.70341e-07
6.42928e-07
1.68214e-07
4.7741e-07
1.65512e-07
3.14148e-07
1.63256e-07
1.52904e-07
1.61237e-07
-5.80469e-09
1.58702e-07
-1.61267e-07
1.55455e-07
-3.13202e-07
1.51927e-07
-4.61963e-07
1.48752e-07
-6.08134e-07
1.46162e-07
-7.5223e-07
1.44088e-07
-8.93626e-07
1.41388e-07
-1.03127e-06
1.37636e-07
-1.16491e-06
1.3363e-07
-1.29522e-06
1.30306e-07
-1.42227e-06
1.27045e-07
-1.5461e-06
1.23817e-07
-1.66667e-06
1.2057e-07
-1.7839e-06
1.17225e-07
-1.89769e-06
1.13779e-07
-2.00806e-06
1.10367e-07
-2.11513e-06
1.07064e-07
-2.21875e-06
1.03612e-07
-2.31896e-06
1.00199e-07
-2.41577e-06
9.67989e-08
-2.50924e-06
9.34713e-08
-2.59952e-06
9.02721e-08
-2.68674e-06
8.72043e-08
-2.77088e-06
8.41383e-08
-2.85186e-06
8.09709e-08
-2.92965e-06
7.7781e-08
-3.0044e-06
7.47454e-08
-3.07627e-06
7.18661e-08
-3.14535e-06
6.9075e-08
-3.2117e-06
6.63556e-08
-3.2753e-06
6.35902e-08
-3.33609e-06
6.07852e-08
-3.39421e-06
5.81212e-08
-3.44976e-06
5.55494e-08
-3.50279e-06
5.30247e-08
-3.55342e-06
5.06213e-08
-3.60188e-06
4.84537e-08
-3.64821e-06
4.6326e-08
-3.69234e-06
4.41284e-08
-3.73403e-06
4.16814e-08
-3.77335e-06
3.93137e-08
-3.81065e-06
3.72903e-08
-3.84623e-06
3.55772e-08
-3.87998e-06
3.37465e-08
-3.91154e-06
3.15525e-08
-3.94098e-06
2.94312e-08
-3.96855e-06
2.75696e-08
-3.99446e-06
2.59052e-08
-4.0188e-06
2.43384e-08
-4.04159e-06
2.27808e-08
-4.06298e-06
2.13943e-08
-4.08315e-06
2.01654e-08
-4.10184e-06
1.86866e-08
-4.11868e-06
1.68351e-08
-4.13409e-06
1.53988e-08
-4.14839e-06
1.42946e-08
-4.16161e-06
1.3213e-08
-4.17376e-06
1.21425e-08
-4.18486e-06
1.10922e-08
-4.19488e-06
1.00094e-08
-4.20374e-06
8.84105e-09
-4.21166e-06
7.90988e-09
-4.21888e-06
7.20869e-09
-4.22536e-06
6.46836e-09
-4.23085e-06
5.4739e-09
-4.23534e-06
4.47603e-09
-4.23908e-06
3.72944e-09
-4.24215e-06
3.05418e-09
-4.24454e-06
2.3781e-09
-4.24656e-06
2.01723e-09
-4.24832e-06
1.74744e-09
-4.24956e-06
1.22323e-09
-4.25023e-06
6.62095e-10
-4.25034e-06
1.02773e-10
-4.2501e-06
-2.39732e-10
-4.24966e-06
-4.49756e-10
-4.24958e-06
-8.23064e-11
-4.24996e-06
3.82304e-10
-4.25075e-06
7.87755e-10
-4.25062e-06
-1.2159e-10
-4.25088e-06
2.59891e-10
-4.25126e-06
3.92003e-10
-4.25214e-06
8.85895e-10
-4.25279e-06
6.5845e-10
-4.25303e-06
2.54805e-10
-4.2533e-06
2.73716e-10
-4.25259e-06
-6.94698e-10
-4.25026e-06
-2.31838e-09
-4.2486e-06
-1.64326e-09
-4.24268e-06
-5.90849e-09
-4.2377e-06
-4.96387e-09
-4.24009e-06
2.40143e-09
-4.23658e-06
-3.48814e-09
-4.23053e-06
-6.03255e-09
-4.22799e-06
-2.52862e-09
-4.18766e-06
-4.03131e-08
-4.15698e-06
-3.06673e-08
-4.18187e-06
2.49074e-08
-4.16615e-06
-1.57032e-08
-4.1965e-06
3.03644e-08
-4.29385e-06
9.73635e-08
-4.47548e-06
1.81637e-07
-4.62495e-06
1.49486e-07
-4.67766e-06
5.27147e-08
-4.7379e-06
6.02537e-08
-4.76666e-06
2.87684e-08
-4.7971e-06
3.04425e-08
-4.81212e-06
1.50361e-08
-4.81682e-06
4.7044e-09
-4.81067e-06
-6.14092e-09
-4.80447e-06
-6.19649e-09
-4.78302e-06
-2.14458e-08
-4.7606e-06
-2.24081e-08
-4.76682e-06
6.22759e-09
-4.77119e-06
4.37584e-09
-4.77412e-06
2.93939e-09
-4.76542e-06
-8.69902e-09
-4.65439e-06
-1.11022e-07
-4.51842e-06
-1.35965e-07
-4.19714e-06
-3.21266e-07
-3.70435e-06
-4.92778e-07
-3.2504e-06
-4.53939e-07
-2.84578e-06
-4.04614e-07
-2.55598e-06
-2.8978e-07
-2.30251e-06
-2.53456e-07
-2.09997e-06
-2.02522e-07
-1.9146e-06
-1.85356e-07
-1.75246e-06
-1.62128e-07
-1.61261e-06
-1.3983e-07
-1.45934e-06
-1.53258e-07
-1.33023e-06
-1.29093e-07
-1.20107e-06
-1.29136e-07
-1.02974e-06
-1.71317e-07
-9.42715e-07
-8.70117e-08
-7.98467e-07
-1.44233e-07
-5.61431e-07
-2.37021e-07
-6.24021e-07
6.26041e-08
-4.36714e-07
-1.87292e-07
-4.14303e-07
-2.23954e-08
-7.19894e-08
-3.42287e-07
-2.52846e-07
1.80884e-07
-5.06274e-07
2.53468e-07
-6.82363e-08
-4.37974e-07
4.62873e-07
-5.3105e-07
1.10136e-06
-6.38431e-07
1.72873e-06
-6.27317e-07
2.28387e-06
-5.55083e-07
2.75901e-06
-4.75093e-07
3.17543e-06
-4.16369e-07
3.55941e-06
-3.83936e-07
3.92623e-06
-3.66782e-07
4.27277e-06
-3.46494e-07
4.60359e-06
-3.30788e-07
4.92864e-06
-3.25013e-07
5.2496e-06
-3.2093e-07
5.57226e-06
-3.22641e-07
5.89504e-06
-3.22753e-07
6.21248e-06
-3.17414e-07
6.52525e-06
-3.12747e-07
6.84103e-06
-3.15761e-07
7.16073e-06
-3.1969e-07
7.47775e-06
-3.17001e-07
7.7923e-06
-3.14535e-07
8.11061e-06
-3.18298e-07
8.43451e-06
-3.23886e-07
8.75924e-06
-3.24719e-07
9.07931e-06
-3.20059e-07
9.39731e-06
-3.17993e-07
9.71528e-06
-3.17951e-07
1.00365e-05
-3.21159e-07
1.03594e-05
-3.22968e-07
1.0683e-05
-3.23549e-07
1.10094e-05
-3.26385e-07
1.13368e-05
-3.27378e-07
1.16614e-05
-3.2455e-07
1.19824e-05
-3.21022e-07
1.23037e-05
-3.21189e-07
1.2629e-05
-3.25316e-07
1.29602e-05
-3.31113e-07
1.32962e-05
-3.3602e-07
1.36337e-05
-3.37397e-07
1.39721e-05
-3.38363e-07
1.43087e-05
-3.36551e-07
1.46454e-05
-3.36611e-07
1.4984e-05
-3.38553e-07
1.53223e-05
-3.38286e-07
1.56604e-05
-3.38031e-07
1.60006e-05
-3.40131e-07
1.63434e-05
-3.42736e-07
1.66864e-05
-3.43004e-07
1.70274e-05
-3.40934e-07
1.73656e-05
-3.38107e-07
1.77014e-05
-3.35773e-07
1.80365e-05
-3.35028e-07
1.83723e-05
-3.3577e-07
1.87097e-05
-3.37306e-07
1.90485e-05
-3.3872e-07
1.93884e-05
-3.39873e-07
1.9729e-05
-3.40597e-07
2.00699e-05
-3.40791e-07
2.04107e-05
-3.40747e-07
2.07514e-05
-3.4064e-07
2.10922e-05
-3.40812e-07
2.14339e-05
-3.41649e-07
2.17762e-05
-3.42208e-07
2.21188e-05
-3.42525e-07
2.24604e-05
-3.41543e-07
2.28018e-05
-3.41398e-07
2.31428e-05
-3.40994e-07
2.34857e-05
-3.42838e-07
2.38284e-05
-3.42655e-07
2.41706e-05
-3.42142e-07
2.45124e-05
-3.41781e-07
2.48545e-05
-3.42101e-07
2.51962e-05
-3.41642e-07
2.55374e-05
-3.41212e-07
2.58813e-05
-3.43786e-07
2.62295e-05
-3.48218e-07
2.65861e-05
-3.56512e-07
2.69477e-05
-3.61571e-07
2.73141e-05
-3.66463e-07
-3.97436e-07
-5.40532e-05
2.04612e-05
-5.48257e-05
4.39674e-06
-5.40782e-05
1.36837e-06
-5.04611e-05
-5.26967e-06
-4.5185e-05
-1.08127e-05
-4.02397e-05
-1.32922e-05
-3.57393e-05
-1.32829e-05
-3.11816e-05
-1.20547e-05
-2.6876e-05
-1.03559e-05
-2.28678e-05
-9.3273e-06
-1.92787e-05
-9.02501e-06
-1.59189e-05
-8.96776e-06
-1.28946e-05
-8.25318e-06
-1.12833e-05
-5.86981e-06
-1.13477e-05
-2.12812e-06
-1.31394e-05
3.02325e-06
-1.58354e-05
8.35156e-06
-1.86074e-05
1.04245e-05
-2.16553e-05
1.02958e-05
-2.45291e-05
8.03038e-06
-2.69376e-05
4.92597e-06
-2.85306e-05
2.33498e-06
-2.86221e-05
-6.71245e-07
-2.76508e-05
-2.85347e-06
-2.64253e-05
-3.81068e-06
-2.52212e-05
-3.95483e-06
-2.41963e-05
-3.49378e-06
-2.37414e-05
-2.24744e-06
-2.43475e-05
-5.6795e-08
-2.60404e-05
2.28289e-06
-2.80805e-05
3.96104e-06
-3.05144e-05
5.68466e-06
-3.3577e-05
7.2053e-06
-3.69533e-05
8.09037e-06
-3.96614e-05
7.84091e-06
-4.15664e-05
6.41366e-06
-4.3652e-05
5.05287e-06
-4.58685e-05
4.42556e-06
-4.79932e-05
4.46185e-06
-4.98094e-05
4.27504e-06
-5.11138e-05
3.09379e-06
-5.1648e-05
9.48121e-07
-5.17588e-05
-2.07161e-07
-5.17946e-05
-4.28537e-07
-5.16528e-05
-3.00436e-07
-5.16648e-05
5.21669e-07
-5.18228e-05
9.34746e-07
-5.20289e-05
8.44359e-07
-5.20315e-05
-1.90374e-08
-5.1797e-05
-9.44583e-07
-5.14571e-05
-1.16588e-06
-5.09337e-05
-9.55928e-07
-5.06485e-05
-1.70873e-07
-5.06018e-05
2.58598e-07
-5.06198e-05
2.335e-07
-5.05957e-05
-2.35893e-07
-5.02331e-05
-1.03517e-06
-4.94124e-05
-1.80044e-06
-4.83911e-05
-2.21623e-06
-4.73432e-05
-2.48725e-06
-4.63855e-05
-2.61771e-06
-4.56011e-05
-2.33715e-06
-4.50731e-05
-1.59235e-06
-4.45248e-05
-1.04668e-06
-4.36794e-05
-1.01375e-06
-4.25464e-05
-1.19675e-06
-4.13779e-05
-1.39639e-06
-4.06006e-05
-1.07483e-06
-4.02065e-05
-5.86079e-07
-3.98962e-05
-5.75072e-07
-3.95715e-05
-9.89727e-07
-3.90883e-05
-1.68741e-06
-3.81754e-05
-2.75638e-06
-3.68309e-05
-3.75857e-06
-3.52767e-05
-4.57866e-06
-3.38815e-05
-5.17001e-06
-3.29048e-05
-5.52431e-06
-3.29365e-05
-5.85877e-06
-3.17811e-05
-5.89217e-06
-2.78822e-05
-5.44963e-06
-2.2134e-05
-6.64074e-06
-1.64491e-05
-5.29086e-06
-1.38063e-05
-2.5608e-06
-1.16945e-05
-1.61719e-06
-1.09925e-05
7.06151e-08
-1.06605e-05
1.00876e-07
-1.06479e-05
6.44494e-07
-1.13485e-05
1.41496e-06
-1.25844e-05
1.92273e-06
-1.35333e-05
1.55486e-06
-1.46014e-05
1.51727e-06
-1.54094e-05
1.05845e-06
-1.60326e-05
7.82342e-07
-1.63779e-05
5.01502e-07
-1.6621e-05
4.38851e-07
-1.67922e-05
4.15014e-07
-1.69026e-05
5.40147e-07
-1.69194e-05
5.66626e-07
-1.71096e-05
6.20881e-07
-1.78376e-05
1.15223e-06
-1.87658e-05
1.44611e-06
-1.92762e-05
9.0591e-07
-1.97403e-05
4.76152e-07
-2.03576e-05
5.02123e-07
-2.05513e-05
2.70794e-07
-2.03084e-05
-1.06086e-07
-2.00178e-05
-1.54115e-07
-1.98509e-05
-6.66409e-08
-1.97822e-05
-6.25279e-08
-1.98201e-05
-1.04917e-07
-1.98397e-05
-1.88831e-07
-1.97765e-05
-3.23258e-07
-1.95938e-05
-5.07995e-07
-1.93874e-05
-5.44596e-07
-1.92028e-05
-6.95768e-07
-1.90412e-05
-8.58258e-07
-1.90749e-05
-1.10127e-06
-1.88327e-05
-1.15063e-06
-1.81364e-05
-1.02478e-06
-1.70047e-05
-1.2219e-06
-1.60344e-05
-9.01553e-07
-1.56081e-05
-4.60336e-07
-1.53246e-05
-1.63385e-07
-1.52283e-05
-1.45165e-08
-1.51732e-05
-1.00171e-07
-1.52814e-05
9.50231e-08
-1.53617e-05
6.12902e-08
-1.52967e-05
-1.05489e-07
-1.52284e-05
-1.0598e-07
-1.51528e-05
-1.34264e-07
-1.50716e-05
-1.61494e-07
-1.50085e-05
-1.4432e-07
-1.49384e-05
-1.50414e-07
-1.48423e-05
-1.78528e-07
-1.47327e-05
-2.06745e-07
-1.4605e-05
-2.50087e-07
-1.44741e-05
-2.63412e-07
-1.43392e-05
-2.70134e-07
-1.42061e-05
-2.68448e-07
-1.40672e-05
-2.79928e-07
-1.39175e-05
-3.02121e-07
-1.37577e-05
-3.23079e-07
-1.35921e-05
-3.35163e-07
-1.34238e-05
-3.33251e-07
-1.32513e-05
-3.36505e-07
-1.30701e-05
-3.54674e-07
-1.28782e-05
-3.78374e-07
-1.26757e-05
-4.06733e-07
-1.2473e-05
-4.15567e-07
-1.22727e-05
-4.08201e-07
-1.20653e-05
-4.06111e-07
-1.18446e-05
-4.26058e-07
-1.16091e-05
-4.67956e-07
-1.13655e-05
-4.92415e-07
-1.1126e-05
-4.88297e-07
-1.08846e-05
-4.90231e-07
-1.06293e-05
-5.06802e-07
-1.0356e-05
-5.33651e-07
-1.00746e-05
-5.5165e-07
-9.79351e-06
-5.61876e-07
-9.51175e-06
-5.70651e-07
-9.21964e-06
-5.90366e-07
-8.92092e-06
-6.01592e-07
-8.6166e-06
-6.07126e-07
-8.2956e-06
-6.35849e-07
-7.96329e-06
-6.64028e-07
-7.62885e-06
-6.70789e-07
-7.29815e-06
-6.59807e-07
-6.96133e-06
-6.71748e-07
-6.60852e-06
-7.08097e-07
-6.24337e-06
-7.35541e-07
-5.87942e-06
-7.33395e-07
-5.51556e-06
-7.21717e-07
-5.14466e-06
-7.32993e-07
-4.76589e-06
-7.63906e-07
-4.37493e-06
-7.93168e-07
-3.97411e-06
-8.12513e-07
-3.56788e-06
-8.17248e-07
-3.16306e-06
-7.99895e-07
-2.76614e-06
-7.83199e-07
-2.37073e-06
-7.90185e-07
-1.97456e-06
-7.99108e-07
-1.57003e-06
-8.21935e-07
-1.1575e-06
-8.36074e-07
-7.4393e-07
-8.30538e-07
-3.3658e-07
-8.12151e-07
5.38568e-08
-7.74909e-07
4.308e-07
-7.54857e-07
8.04189e-07
-7.55658e-07
1.17935e-06
-7.5865e-07
1.55498e-06
-7.49699e-07
1.92521e-06
-7.27418e-07
2.2836e-06
-7.03802e-07
2.62858e-06
-6.85054e-07
2.96635e-06
-6.79115e-07
3.30416e-06
-6.81272e-07
3.64155e-06
-6.78914e-07
3.9727e-06
-6.63626e-07
4.29394e-06
-6.37134e-07
4.60688e-06
-6.18067e-07
4.91629e-06
-6.12295e-07
5.22404e-06
-6.14717e-07
5.52746e-06
-6.09751e-07
5.8235e-06
-5.95201e-07
6.11252e-06
-5.78473e-07
6.39785e-06
-5.65949e-07
6.67961e-06
-5.59302e-07
6.95602e-06
-5.53776e-07
7.22479e-06
-5.40787e-07
7.48404e-06
-5.17227e-07
7.73793e-06
-5.02048e-07
7.98987e-06
-5.01926e-07
8.23828e-06
-4.97946e-07
8.48071e-06
-4.87366e-07
8.71609e-06
-4.73075e-07
8.94268e-06
-4.51033e-07
9.16003e-06
-4.29175e-07
9.37038e-06
-4.16872e-07
9.57626e-06
-4.11861e-07
9.77768e-06
-4.04824e-07
9.9724e-06
-3.92061e-07
1.01597e-05
-3.76217e-07
1.03382e-05
-3.54306e-07
1.05074e-05
-3.33901e-07
1.06681e-05
-3.18432e-07
1.08214e-05
-3.06835e-07
1.09685e-05
-2.96301e-07
1.11088e-05
-2.82915e-07
1.12409e-05
-2.65801e-07
1.13629e-05
-2.42554e-07
1.14752e-05
-2.22099e-07
1.15804e-05
-2.07769e-07
1.16792e-05
-1.96548e-07
1.1771e-05
-1.84133e-07
1.18549e-05
-1.68254e-07
1.19297e-05
-1.4958e-07
1.19943e-05
-1.30247e-07
1.2049e-05
-1.11553e-07
1.20956e-05
-9.43007e-08
1.21354e-05
-7.88153e-08
1.21693e-05
-6.46906e-08
1.21961e-05
-5.1176e-08
1.22146e-05
-3.78762e-08
1.22249e-05
-2.28005e-08
1.22272e-05
-7.64259e-09
1.22211e-05
1.0028e-08
1.2208e-05
2.87951e-08
1.21891e-05
4.04795e-08
1.21646e-05
4.86354e-08
1.21335e-05
6.04524e-08
1.20947e-05
7.48564e-08
1.20489e-05
8.96936e-08
1.1997e-05
1.04555e-07
1.19405e-05
1.15108e-07
1.18789e-05
1.24496e-07
1.18116e-05
1.34389e-07
1.17378e-05
1.45851e-07
1.16565e-05
1.59731e-07
1.15707e-05
1.69984e-07
1.14823e-05
1.77774e-07
1.139e-05
1.86016e-07
1.12931e-05
1.93436e-07
1.11916e-05
2.0144e-07
1.10848e-05
2.11768e-07
1.09721e-05
2.24535e-07
1.08551e-05
2.35858e-07
1.07353e-05
2.40641e-07
1.06134e-05
2.43006e-07
1.04883e-05
2.49034e-07
1.03593e-05
2.56501e-07
1.02261e-05
2.64207e-07
1.00893e-05
2.72349e-07
9.94951e-06
2.81034e-07
9.80696e-06
2.87702e-07
9.66102e-06
2.92772e-07
9.51175e-06
2.97057e-07
9.36002e-06
3.01598e-07
9.20619e-06
3.06363e-07
9.05062e-06
3.10294e-07
8.89276e-06
3.14647e-07
8.73097e-06
3.23092e-07
8.56591e-06
3.31961e-07
8.39872e-06
3.35424e-07
8.23064e-06
3.35463e-07
8.06078e-06
3.38605e-07
7.88786e-06
3.44362e-07
7.71255e-06
3.48785e-07
7.53568e-06
3.5259e-07
7.3571e-06
3.57902e-07
7.17683e-06
3.62243e-07
6.99501e-06
3.64732e-07
6.81099e-06
3.67166e-07
6.62468e-06
3.70608e-07
6.43699e-06
3.73413e-07
6.24902e-06
3.74998e-07
6.0606e-06
3.78191e-07
5.87096e-06
3.81495e-07
5.67859e-06
3.84914e-07
5.48387e-06
3.87494e-07
5.28897e-06
3.87844e-07
5.09513e-06
3.8681e-07
4.90156e-06
3.88243e-07
4.70674e-06
3.91221e-07
4.51002e-06
3.92933e-07
4.31287e-06
3.9269e-07
4.11797e-06
3.89501e-07
3.92445e-06
3.8838e-07
3.73053e-06
3.88765e-07
3.53583e-06
3.88582e-07
3.34243e-06
3.85729e-07
3.15146e-06
3.81529e-07
2.9619e-06
3.79319e-07
2.77316e-06
3.78632e-07
2.58458e-06
3.77628e-07
2.39721e-06
3.7378e-07
2.21288e-06
3.68174e-07
2.03087e-06
3.64203e-07
1.85061e-06
3.6083e-07
1.67183e-06
3.57775e-07
1.49427e-06
3.5479e-07
1.31844e-06
3.51234e-07
1.14487e-06
3.47103e-07
9.73557e-07
3.43118e-07
8.04326e-07
3.3956e-07
6.37141e-07
3.35386e-07
4.71956e-07
3.30683e-07
3.08794e-07
3.26405e-07
1.48033e-07
3.21986e-07
-9.87343e-09
3.16595e-07
-1.64742e-07
3.1031e-07
-3.16679e-07
3.0385e-07
-4.65824e-07
2.97884e-07
-6.12231e-07
2.92555e-07
-7.55772e-07
2.87615e-07
-8.96382e-07
2.81984e-07
-1.03409e-06
2.75333e-07
-1.16817e-06
2.67696e-07
-1.2988e-06
2.60923e-07
-1.42595e-06
2.54184e-07
-1.54963e-06
2.47481e-07
-1.67011e-06
2.41035e-07
-1.78745e-06
2.34558e-07
-1.90153e-06
2.2784e-07
-2.0123e-06
2.21132e-07
-2.11969e-06
2.14436e-07
-2.2233e-06
2.07208e-07
-2.32332e-06
2.00212e-07
-2.42002e-06
1.93484e-07
-2.51353e-06
1.86965e-07
-2.6039e-06
1.80631e-07
-2.69115e-06
1.74436e-07
-2.77525e-06
1.6823e-07
-2.85619e-06
1.61902e-07
-2.93397e-06
1.55551e-07
-3.0087e-06
1.49467e-07
-3.08055e-06
1.43707e-07
-3.1497e-06
1.38217e-07
-3.21624e-06
1.32886e-07
-3.27997e-06
1.27311e-07
-3.34077e-06
1.2158e-07
-3.39888e-06
1.16226e-07
-3.45447e-06
1.11127e-07
-3.50759e-06
1.06139e-07
-3.55828e-06
1.013e-07
-3.60662e-06
9.6787e-08
-3.65261e-06
9.2307e-08
-3.69631e-06
8.78179e-08
-3.7378e-06
8.31616e-08
-3.7772e-06
7.87022e-08
-3.81465e-06
7.47277e-08
-3.85025e-06
7.11728e-08
-3.88392e-06
6.74014e-08
-3.91545e-06
6.30796e-08
-3.94486e-06
5.88315e-08
-3.9724e-06
5.51031e-08
-3.99835e-06
5.18533e-08
-4.02284e-06
4.88138e-08
-4.04574e-06
4.56768e-08
-4.06698e-06
4.26313e-08
-4.08658e-06
3.97548e-08
-4.10469e-06
3.67879e-08
-4.12153e-06
3.36548e-08
-4.13705e-06
3.09119e-08
-4.15141e-06
2.86384e-08
-4.1647e-06
2.64888e-08
-4.1768e-06
2.42278e-08
-4.18771e-06
2.19797e-08
-4.19756e-06
1.98447e-08
-4.20646e-06
1.77127e-08
-4.21443e-06
1.58573e-08
-4.22147e-06
1.42346e-08
-4.2275e-06
1.24668e-08
-4.23273e-06
1.06896e-08
-4.23726e-06
8.97737e-09
-4.24122e-06
7.66754e-09
-4.24438e-06
6.19519e-09
-4.24681e-06
4.78803e-09
-4.24846e-06
3.6449e-09
-4.2497e-06
2.96864e-09
-4.25058e-06
2.0939e-09
-4.2514e-06
1.46972e-09
-4.25153e-06
2.17927e-10
-4.25143e-06
-3.42838e-10
-4.25082e-06
-1.06455e-09
-4.25035e-06
-5.56117e-10
-4.24937e-06
-5.89434e-10
-4.24911e-06
5.2449e-10
-4.24825e-06
-9.73073e-10
-4.24865e-06
6.762e-10
-4.25061e-06
2.36747e-09
-4.25244e-06
2.72612e-09
-4.25476e-06
3.00528e-09
-4.25391e-06
-5.73453e-10
-4.25392e-06
3.04561e-10
-4.24876e-06
-5.83378e-09
-4.24669e-06
-4.36024e-09
-4.25234e-06
4.03197e-09
-4.25556e-06
-2.65846e-09
-4.25383e-06
-6.66677e-09
-4.24964e-06
-1.76106e-09
-4.20682e-06
-4.62808e-08
-4.18007e-06
-3.27559e-08
-4.21592e-06
3.33506e-08
-4.24466e-06
-1.15411e-08
-4.31236e-06
3.70568e-08
-4.40969e-06
1.22261e-07
-4.61202e-06
1.86649e-07
-4.76831e-06
1.86683e-07
-4.80831e-06
1.37384e-07
-4.81344e-06
1.86777e-07
-4.80003e-06
1.36096e-07
-4.83028e-06
8.2986e-08
-4.83933e-06
6.93227e-08
-4.8484e-06
3.78471e-08
-4.84519e-06
2.72489e-08
-4.82784e-06
-2.29949e-09
-4.80106e-06
-2.20658e-08
-4.79088e-06
-1.63021e-08
-4.81156e-06
1.44963e-08
-4.83784e-06
4.84827e-09
-4.85083e-06
-9.40812e-09
-4.81181e-06
-3.27773e-08
-4.64312e-06
-1.64296e-07
-4.4504e-06
-1.89761e-07
-4.09712e-06
-3.61964e-07
-3.63804e-06
-5.70079e-07
-3.19916e-06
-5.74832e-07
-2.88452e-06
-6.35883e-07
-2.73722e-06
-6.40058e-07
-2.61933e-06
-5.71802e-07
-2.47304e-06
-5.50881e-07
-2.33488e-06
-4.2792e-07
-2.17554e-06
-4.12762e-07
-2.02063e-06
-3.57406e-07
-1.86854e-06
-3.37417e-07
-1.73269e-06
-2.97951e-07
-1.60023e-06
-2.72266e-07
-1.41703e-06
-3.36425e-07
-1.32026e-06
-2.25834e-07
-1.16085e-06
-2.88526e-07
-9.41117e-07
-3.91021e-07
-9.50799e-07
-7.73032e-08
-7.76302e-07
-3.18704e-07
-8.31281e-07
-1.82016e-07
-3.7153e-07
-3.97116e-07
-5.62399e-07
3.60452e-09
-6.86595e-07
1.01838e-07
-3.15982e-07
-7.12862e-07
2.71031e-07
-4.06093e-07
1.13816e-06
-6.13631e-07
1.60542e-06
-9.05194e-07
1.98206e-06
-9.07655e-07
2.25666e-06
-9.12991e-07
2.53448e-06
-9.0509e-07
2.84202e-06
-8.6258e-07
3.16092e-06
-7.93952e-07
3.47863e-06
-7.34032e-07
3.79407e-06
-6.99333e-07
4.10802e-06
-6.80694e-07
4.42203e-06
-6.60459e-07
4.73727e-06
-6.45987e-07
5.0545e-06
-6.42206e-07
5.37305e-06
-6.39449e-07
5.69196e-06
-6.41518e-07
6.00773e-06
-6.38484e-07
6.32205e-06
-6.31703e-07
6.63673e-06
-6.274e-07
6.95317e-06
-6.32171e-07
7.27061e-06
-6.37103e-07
7.58852e-06
-6.34886e-07
7.9081e-06
-6.34088e-07
8.22933e-06
-6.395e-07
8.55109e-06
-6.45621e-07
8.87358e-06
-6.47188e-07
9.19646e-06
-6.42907e-07
9.51976e-06
-6.41264e-07
9.84366e-06
-6.41826e-07
1.01672e-05
-6.44674e-07
1.0492e-05
-6.47689e-07
1.08192e-05
-6.50695e-07
1.1147e-05
-6.54145e-07
1.14739e-05
-6.54322e-07
1.17999e-05
-6.50487e-07
1.21259e-05
-6.46884e-07
1.24531e-05
-6.4839e-07
1.27823e-05
-6.54426e-07
1.31133e-05
-6.62005e-07
1.34454e-05
-6.68061e-07
1.37786e-05
-6.70559e-07
1.41128e-05
-6.72482e-07
1.44482e-05
-6.71878e-07
1.4785e-05
-6.73317e-07
1.5123e-05
-6.76375e-07
1.54611e-05
-6.76359e-07
1.57992e-05
-6.76025e-07
1.61376e-05
-6.78368e-07
1.64759e-05
-6.8097e-07
1.68141e-05
-6.81102e-07
1.71523e-05
-6.79007e-07
1.74906e-05
-6.76369e-07
1.78295e-05
-6.74542e-07
1.81687e-05
-6.74076e-07
1.85078e-05
-6.7484e-07
1.88469e-05
-6.76329e-07
1.91864e-05
-6.78096e-07
1.95264e-05
-6.79798e-07
1.98669e-05
-6.81012e-07
2.02078e-05
-6.81541e-07
2.05486e-05
-6.81513e-07
2.08895e-05
-6.8145e-07
2.12308e-05
-6.82034e-07
2.15725e-05
-6.83268e-07
2.19143e-05
-6.83915e-07
2.22558e-05
-6.83919e-07
2.25968e-05
-6.82461e-07
2.29382e-05
-6.82755e-07
2.32804e-05
-6.83082e-07
2.36227e-05
-6.85108e-07
2.39645e-05
-6.84407e-07
2.43061e-05
-6.83697e-07
2.46485e-05
-6.84085e-07
2.49916e-05
-6.85157e-07
2.53347e-05
-6.84622e-07
2.56778e-05
-6.84294e-07
2.60213e-05
-6.87264e-07
2.63651e-05
-6.91944e-07
2.67087e-05
-7.00068e-07
2.70515e-05
-7.04247e-07
2.73943e-05
-7.09198e-07
-7.14772e-07
-5.1321e-05
2.55744e-05
-5.01434e-05
3.22161e-06
-4.84541e-05
-3.19069e-07
-4.50295e-05
-8.69281e-06
-4.2327e-05
-1.35141e-05
-4.06792e-05
-1.49391e-05
-3.89735e-05
-1.4988e-05
-3.69246e-05
-1.4103e-05
-3.52198e-05
-1.20603e-05
-3.4685e-05
-9.86179e-06
-3.5157e-05
-8.5528e-06
-3.58671e-05
-8.2574e-06
-3.61932e-05
-7.92694e-06
-3.63739e-05
-5.68891e-06
-3.67991e-05
-1.70285e-06
-3.67686e-05
2.99284e-06
-3.5801e-05
7.38404e-06
-3.43837e-05
9.00729e-06
-3.32386e-05
9.15075e-06
-3.30199e-05
7.81181e-06
-3.38076e-05
5.71372e-06
-3.49384e-05
3.46587e-06
-3.6591e-05
9.81352e-07
-3.88291e-05
-6.15293e-07
-4.12163e-05
-1.42341e-06
-4.32837e-05
-1.88736e-06
-4.50924e-05
-1.68504e-06
-4.67711e-05
-5.68721e-07
-4.84025e-05
1.57469e-06
-5.002e-05
3.90046e-06
-5.14548e-05
5.39585e-06
-5.21541e-05
6.38399e-06
-5.18784e-05
6.92967e-06
-5.08413e-05
7.05329e-06
-4.95469e-05
6.54654e-06
-4.89772e-05
5.84409e-06
-4.9557e-05
5.63268e-06
-5.07168e-05
5.58542e-06
-5.17642e-05
5.50928e-06
-5.24226e-05
4.93348e-06
-5.27187e-05
3.38992e-06
-5.28242e-05
1.05369e-06
-5.28597e-05
-1.71691e-07
-5.28259e-05
-4.62281e-07
-5.26984e-05
-4.27868e-07
-5.23597e-05
1.82958e-07
-5.21304e-05
7.05543e-07
-5.18983e-05
6.12295e-07
-5.15682e-05
-3.49097e-07
-5.1335e-05
-1.17774e-06
-5.11379e-05
-1.36289e-06
-5.08344e-05
-1.25945e-06
-5.04321e-05
-5.73098e-07
-5.02344e-05
6.09633e-08
-5.01265e-05
1.25661e-07
-5.00486e-05
-3.13779e-07
-4.98741e-05
-1.20955e-06
-4.9531e-05
-2.14345e-06
-4.91037e-05
-2.64344e-06
-4.86671e-05
-2.92383e-06
-4.82794e-05
-3.00533e-06
-4.78538e-05
-2.76265e-06
-4.72988e-05
-2.14723e-06
-4.64304e-05
-1.91506e-06
-4.49475e-05
-2.49655e-06
-4.31129e-05
-3.03124e-06
-4.14321e-05