/*--------------------------------*- C++ -*----------------------------------*\
| =========                 |                                                 |
| \\      /  F ield         | OpenFOAM: The Open Source CFD Toolbox           |
|  \\    /   O peration     | Version:  v2006                                 |
|   \\  /    A nd           | Website:  www.openfoam.com                      |
|    \\/     M anipulation  |                                                 |
\*---------------------------------------------------------------------------*/
FoamFile
{
    version     2.0;
    format      ascii;
    class       volVectorField;
    location    "8.2";
    object      U;
}
// * * * * * * * * * * * * * * * * * * * * * * * * * * * * * * * * * * * * * //

dimensions      [0 1 -1 0 0 0 0];


internalField   nonuniform List<vector> 
33000
(
(-0.176752 0 0.033037)
(-0.139365 0 0.00939903)
(-0.161122 0 0.00657993)
(-0.161628 0 -0.00266841)
(-0.152212 0 -0.011809)
(-0.132663 0 -0.0210739)
(-0.108822 0 -0.0248726)
(-0.0888935 0 -0.0206849)
(-0.0724876 0 -0.0153297)
(-0.0595518 0 -0.0118623)
(-0.0462874 0 -0.0129428)
(-0.0319347 0 -0.0139705)
(-0.0186243 0 -0.0131399)
(-0.00626366 0 -0.0115988)
(0.00291378 0 -0.00679967)
(0.00496601 0 0.00183372)
(-0.00272025 0 0.013862)
(-0.0216354 0 0.0193639)
(-0.0416268 0 0.0163818)
(-0.059279 0 0.00857549)
(-0.0684323 0 0.00143622)
(-0.0708995 0 -0.00166429)
(-0.0712386 0 -0.00263863)
(-0.0676948 0 -0.00435234)
(-0.0617943 0 -0.00519153)
(-0.0547213 0 -0.00598582)
(-0.0483889 0 -0.00571069)
(-0.0427949 0 -0.00432787)
(-0.039464 0 -0.000872964)
(-0.0392338 0 0.00437049)
(-0.0420876 0 0.0104607)
(-0.0485539 0 0.0135668)
(-0.0580703 0 0.0121514)
(-0.0687913 0 0.0108072)
(-0.0816881 0 0.0130056)
(-0.0953115 0 0.0124774)
(-0.104704 0 0.00729097)
(-0.110299 0 0.00483308)
(-0.115337 0 0.0052179)
(-0.121881 0 0.00572938)
(-0.127975 0 0.00391141)
(-0.130236 0 0.000609865)
(-0.13005 0 -0.00138172)
(-0.128699 0 -0.00179062)
(-0.127564 0 -4.84134e-05)
(-0.128196 0 0.00177701)
(-0.130207 0 0.00247871)
(-0.132087 0 0.00171078)
(-0.133017 0 -0.000356567)
(-0.131979 0 -0.0022301)
(-0.129583 0 -0.00229632)
(-0.127844 0 -0.000254472)
(-0.127674 0 0.000836609)
(-0.128388 0 0.00119896)
(-0.129224 0 0.00074395)
(-0.129274 0 -0.000642287)
(-0.128069 0 -0.00157563)
(-0.125894 0 -0.00185089)
(-0.123251 0 -0.0021432)
(-0.119983 0 -0.00288413)
(-0.115976 0 -0.00392714)
(-0.111816 0 -0.00400793)
(-0.108426 0 -0.00279901)
(-0.106367 0 -0.000693303)
(-0.105744 0 0.000359861)
(-0.105697 0 0.00061326)
(-0.105261 0 0.000212324)
(-0.104542 0 -0.000218566)
(-0.103923 0 -0.000151332)
(-0.103503 0 -0.000342173)
(-0.102552 0 -0.00141133)
(-0.100147 0 -0.00284413)
(-0.0961869 0 -0.00412043)
(-0.090978 0 -0.00537965)
(-0.0839652 0 -0.00653427)
(-0.0758804 0 -0.00887981)
(-0.0634739 0 -0.0111584)
(-0.0573302 0 -0.0165395)
(-0.032902 0 -0.00865903)
(-0.0322121 0 0.00167253)
(-0.0257887 0 0.00463186)
(-0.027587 0 0.00762545)
(-0.0278218 0 0.000791302)
(-0.0279117 0 0.000542924)
(-0.0303953 0 -0.000425584)
(-0.0316427 0 0.0015356)
(-0.0326799 0 0.00223713)
(-0.0348176 0 0.00237002)
(-0.0363703 0 0.00125183)
(-0.0381439 0 0.000443022)
(-0.0394866 0 7.95365e-05)
(-0.0403213 0 0.000125722)
(-0.0407851 0 0.000536788)
(-0.0410737 0 0.000477784)
(-0.0416146 0 0.000766197)
(-0.0419723 0 0.000623959)
(-0.0429723 0 0.00167038)
(-0.0438316 0 0.00235458)
(-0.0462898 0 0.00211027)
(-0.0456526 0 -0.00128998)
(-0.048007 0 -0.00242317)
(-0.0488418 0 -0.00106028)
(-0.0496603 0 0.00129708)
(-0.0489966 0 0.00168653)
(-0.049132 0 0.00163621)
(-0.0493268 0 0.000212579)
(-0.0497916 0 -0.000550432)
(-0.0500597 0 -0.00109659)
(-0.0502624 0 -0.00106016)
(-0.0500951 0 -0.000658477)
(-0.0495564 0 -0.000445985)
(-0.0490408 0 -0.000328035)
(-0.0482809 0 -0.000662866)
(-0.0473522 0 -0.000818264)
(-0.0467095 0 -0.00151265)
(-0.0445454 0 -0.00190762)
(-0.0437031 0 -0.00365097)
(-0.0386084 0 -0.00225627)
(-0.0387611 0 0.000191806)
(-0.0375337 0 0.00161727)
(-0.0380654 0 0.00154284)
(-0.0378774 0 -3.05376e-05)
(-0.0379826 0 -0.000244671)
(-0.0384139 0 -0.000351463)
(-0.0383676 0 -0.000101766)
(-0.0382459 0 8.74208e-05)
(-0.0382685 0 0.000133016)
(-0.0381579 0 -3.76004e-05)
(-0.0380713 0 -5.56845e-05)
(-0.0379618 0 -0.000120688)
(-0.0377771 0 -0.000116798)
(-0.0375656 0 -0.000125072)
(-0.0373672 0 -0.000114194)
(-0.0371658 0 -0.000114622)
(-0.0369533 0 -0.000156363)
(-0.0366772 0 -0.000217165)
(-0.0363449 0 -0.000244714)
(-0.0360119 0 -0.00024836)
(-0.0356709 0 -0.000256624)
(-0.0353326 0 -0.000270751)
(-0.0349657 0 -0.000294034)
(-0.0345701 0 -0.000318635)
(-0.0341488 0 -0.000329943)
(-0.0337235 0 -0.000319416)
(-0.0333223 0 -0.000307595)
(-0.0329026 0 -0.00033315)
(-0.0324548 0 -0.000360404)
(-0.0319679 0 -0.000405584)
(-0.0314352 0 -0.000423582)
(-0.0309032 0 -0.000417764)
(-0.0303959 0 -0.000383409)
(-0.0299089 0 -0.000394863)
(-0.0293655 0 -0.000459084)
(-0.0287479 0 -0.000497771)
(-0.0281224 0 -0.000498919)
(-0.0275022 0 -0.000502449)
(-0.026879 0 -0.000494026)
(-0.0262423 0 -0.000504827)
(-0.0255784 0 -0.000525778)
(-0.0248894 0 -0.000559663)
(-0.0241753 0 -0.000580428)
(-0.0234438 0 -0.000595928)
(-0.0226837 0 -0.000603001)
(-0.0219299 0 -0.000599822)
(-0.0211676 0 -0.000617324)
(-0.0203557 0 -0.000654978)
(-0.0195085 0 -0.000665744)
(-0.0186748 0 -0.000649453)
(-0.0178615 0 -0.000660756)
(-0.016999 0 -0.00070161)
(-0.0160851 0 -0.000733216)
(-0.0151473 0 -0.000733142)
(-0.0142379 0 -0.000701563)
(-0.0133575 0 -0.000705338)
(-0.0124254 0 -0.000762177)
(-0.0114328 0 -0.000800032)
(-0.0104135 0 -0.000818525)
(-0.00937454 0 -0.000809642)
(-0.00835813 0 -0.000764361)
(-0.00739948 0 -0.000747506)
(-0.00642448 0 -0.000777379)
(-0.00542662 0 -0.000802339)
(-0.00440835 0 -0.000833579)
(-0.00333939 0 -0.000840865)
(-0.00229103 0 -0.000817826)
(-0.00125318 0 -0.000790174)
(-0.00026741 0 -0.000752048)
(0.000671288 0 -0.000747628)
(0.00162269 0 -0.00076026)
(0.00258321 0 -0.000759503)
(0.00354052 0 -0.00073153)
(0.00445333 0 -0.000689154)
(0.00532758 0 -0.000668747)
(0.00618056 0 -0.000666882)
(0.00702867 0 -0.000675935)
(0.00788777 0 -0.000679245)
(0.00874576 0 -0.000674059)
(0.00959609 0 -0.000655696)
(0.0104069 0 -0.000617927)
(0.0111768 0 -0.000592481)
(0.0119319 0 -0.000588407)
(0.0126922 0 -0.000602313)
(0.0134659 0 -0.000604715)
(0.0142234 0 -0.00059113)
(0.0149612 0 -0.000570309)
(0.01567 0 -0.000547518)
(0.0163642 0 -0.00054169)
(0.0170572 0 -0.000545549)
(0.0177499 0 -0.000536573)
(0.0184163 0 -0.000505977)
(0.0190384 0 -0.000482966)
(0.0196578 0 -0.000489626)
(0.0202867 0 -0.000491356)
(0.0209042 0 -0.000483435)
(0.0215108 0 -0.000468829)
(0.022091 0 -0.000438201)
(0.022632 0 -0.000410887)
(0.0231499 0 -0.000402714)
(0.0236639 0 -0.000405399)
(0.024179 0 -0.000401247)
(0.0246794 0 -0.000389698)
(0.0251656 0 -0.000372701)
(0.0256224 0 -0.000343037)
(0.0260443 0 -0.000319141)
(0.0264452 0 -0.000307709)
(0.0268326 0 -0.000302079)
(0.0272126 0 -0.000294466)
(0.0275773 0 -0.000282194)
(0.0279259 0 -0.000264331)
(0.0282444 0 -0.000235743)
(0.0285288 0 -0.000212941)
(0.028793 0 -0.000199363)
(0.0290419 0 -0.000191363)
(0.029281 0 -0.000182289)
(0.0295032 0 -0.000165934)
(0.0297024 0 -0.000145936)
(0.0298769 0 -0.000128623)
(0.0300304 0 -0.000113174)
(0.0301609 0 -9.54071e-05)
(0.030269 0 -7.7013e-05)
(0.030356 0 -5.75267e-05)
(0.0304224 0 -4.56073e-05)
(0.030478 0 -3.86915e-05)
(0.030519 0 -2.57963e-05)
(0.0305406 0 -1.21314e-05)
(0.0305453 0 5.94123e-06)
(0.0305203 0 3.28732e-05)
(0.0304678 0 4.46171e-05)
(0.0304121 0 4.69514e-05)
(0.0303469 0 5.63954e-05)
(0.0302652 0 6.9544e-05)
(0.0301667 0 8.52388e-05)
(0.0300451 0 0.0001042)
(0.029904 0 0.000116967)
(0.0297522 0 0.000124838)
(0.0295892 0 0.000131598)
(0.0294169 0 0.000140266)
(0.029229 0 0.000151917)
(0.0290249 0 0.000164341)
(0.0288082 0 0.000176991)
(0.0285783 0 0.000185819)
(0.0283399 0 0.000189813)
(0.0280957 0 0.000195585)
(0.0278403 0 0.000204881)
(0.0275708 0 0.00021859)
(0.0272811 0 0.0002352)
(0.0269775 0 0.000239202)
(0.026677 0 0.000237526)
(0.0263721 0 0.000242665)
(0.0260578 0 0.000249406)
(0.0257348 0 0.000256767)
(0.025403 0 0.000267448)
(0.0250569 0 0.000280386)
(0.0246974 0 0.000287599)
(0.0243313 0 0.000288891)
(0.0239636 0 0.000289224)
(0.0235924 0 0.000293673)
(0.0232145 0 0.000300151)
(0.0228298 0 0.000305191)
(0.022441 0 0.000309197)
(0.0220459 0 0.00031898)
(0.0216343 0 0.000331753)
(0.0212119 0 0.000331597)
(0.0207931 0 0.000328448)
(0.0203747 0 0.00033162)
(0.0199493 0 0.000337914)
(0.0195173 0 0.000342345)
(0.0190818 0 0.000347267)
(0.0186382 0 0.00035559)
(0.018185 0 0.000361263)
(0.017728 0 0.000361385)
(0.0172701 0 0.000359872)
(0.0168117 0 0.000362675)
(0.016348 0 0.000366135)
(0.0158827 0 0.000369589)
(0.0154121 0 0.000376964)
(0.0149335 0 0.000380749)
(0.0144522 0 0.000378905)
(0.0139703 0 0.000377908)
(0.0134877 0 0.000379465)
(0.013005 0 0.000380977)
(0.0125221 0 0.000385596)
(0.0120311 0 0.00038877)
(0.0115398 0 0.000386676)
(0.0110494 0 0.000384159)
(0.0105617 0 0.000383401)
(0.0100757 0 0.000385233)
(0.00958708 0 0.000384724)
(0.00910097 0 0.000381307)
(0.00861731 0 0.000377977)
(0.00813894 0 0.000375)
(0.00766419 0 0.000373878)
(0.00718976 0 0.000375071)
(0.00671452 0 0.00037331)
(0.00624427 0 0.000366872)
(0.00578229 0 0.000361731)
(0.0053248 0 0.000359086)
(0.00487122 0 0.000356197)
(0.00442175 0 0.000353019)
(0.00397614 0 0.000349165)
(0.00353544 0 0.00034545)
(0.00309903 0 0.000341935)
(0.0026677 0 0.000339124)
(0.00223989 0 0.000336844)
(0.00181596 0 0.000332516)
(0.0013988 0 0.000326531)
(0.000988364 0 0.000321944)
(0.000582493 0 0.000318554)
(0.00018211 0 0.000313956)
(-0.000211155 0 0.000307279)
(-0.000595208 0 0.000299614)
(-0.000970864 0 0.0002929)
(-0.00133896 0 0.00028794)
(-0.00170177 0 0.000284651)
(-0.00205938 0 0.000279396)
(-0.00240879 0 0.000271107)
(-0.00274753 0 0.000263194)
(-0.00307705 0 0.000256879)
(-0.00339903 0 0.000250507)
(-0.00371236 0 0.000244328)
(-0.00401811 0 0.000237846)
(-0.00431527 0 0.000231063)
(-0.00460424 0 0.000224115)
(-0.0048842 0 0.000217389)
(-0.00515611 0 0.000210922)
(-0.00541953 0 0.000204297)
(-0.00567422 0 0.000197683)
(-0.00592054 0 0.000190968)
(-0.00615827 0 0.000184326)
(-0.00638792 0 0.000178043)
(-0.00660968 0 0.000172024)
(-0.00682397 0 0.000166041)
(-0.00703042 0 0.000159772)
(-0.00722884 0 0.000153448)
(-0.00741937 0 0.000147434)
(-0.00760258 0 0.000141734)
(-0.00777872 0 0.000136175)
(-0.00794797 0 0.000130722)
(-0.00811052 0 0.000125247)
(-0.00826592 0 0.000119732)
(-0.00841447 0 0.000114544)
(-0.00855653 0 0.000109388)
(-0.00869225 0 0.00010439)
(-0.00882166 0 9.95311e-05)
(-0.00894541 0 9.53732e-05)
(-0.00906392 0 9.12949e-05)
(-0.0091771 0 8.72298e-05)
(-0.00928455 0 8.21447e-05)
(-0.00938556 0 7.7202e-05)
(-0.00948114 0 7.28021e-05)
(-0.00957206 0 6.9602e-05)
(-0.00965904 0 6.60466e-05)
(-0.00974081 0 6.18407e-05)
(-0.00981684 0 5.74393e-05)
(-0.00988799 0 5.38262e-05)
(-0.00995471 0 5.0384e-05)
(-0.0100175 0 4.72482e-05)
(-0.0100764 0 4.40917e-05)
(-0.0101315 0 4.15566e-05)
(-0.0101834 0 3.95508e-05)
(-0.0102324 0 3.66469e-05)
(-0.0102768 0 3.24973e-05)
(-0.0103166 0 2.94874e-05)
(-0.0103538 0 2.76044e-05)
(-0.0103881 0 2.53102e-05)
(-0.0104199 0 2.35906e-05)
(-0.0104489 0 2.13489e-05)
(-0.0104754 0 1.95527e-05)
(-0.010499 0 1.68498e-05)
(-0.0105197 0 1.54527e-05)
(-0.0105386 0 1.40622e-05)
(-0.0105558 0 1.32574e-05)
(-0.0105709 0 1.10225e-05)
(-0.0105833 0 9.06805e-06)
(-0.0105933 0 7.55516e-06)
(-0.010602 0 6.37176e-06)
(-0.0106087 0 5.37603e-06)
(-0.010614 0 4.75784e-06)
(-0.0106188 0 4.9214e-06)
(-0.0106227 0 2.84582e-06)
(-0.0106251 0 2.39623e-06)
(-0.0106259 0 3.8279e-07)
(-0.0106258 0 9.08961e-07)
(-0.0106245 0 -8.22521e-07)
(-0.010624 0 1.481e-06)
(-0.0106237 0 1.47002e-06)
(-0.0106265 0 3.6041e-06)
(-0.0106268 0 1.69718e-06)
(-0.0106267 0 3.50068e-06)
(-0.0106273 0 6.69583e-06)
(-0.0106293 0 5.05165e-06)
(-0.0106312 0 9.89137e-06)
(-0.010633 0 9.21128e-08)
(-0.010632 0 6.55967e-06)
(-0.0106348 0 -5.98964e-06)
(-0.0106276 0 7.57491e-06)
(-0.0106246 0 -2.95276e-06)
(-0.0106175 0 7.83644e-06)
(-0.0105963 0 -2.62563e-05)
(-0.0105924 0 -1.15137e-05)
(-0.0106087 0 -5.70564e-05)
(-0.010572 0 -1.87361e-06)
(-0.0105849 0 2.73457e-05)
(-0.0105499 0 6.13779e-05)
(-0.0103887 0 -4.34584e-05)
(-0.0104008 0 -8.68896e-05)
(-0.0105077 0 -0.00041149)
(-0.0103138 0 -0.000216565)
(-0.0106963 0 0.000241311)
(-0.0107338 0 0.00049696)
(-0.0116474 0 0.000452672)
(-0.0115094 0 0.000105958)
(-0.0118573 0 0.000179356)
(-0.0118447 0 1.90464e-05)
(-0.0119799 0 4.00152e-05)
(-0.0120107 0 -6.09952e-05)
(-0.0120467 0 1.64003e-05)
(-0.0120389 0 -4.17761e-06)
(-0.0120143 0 0.000105251)
(-0.0120067 0 9.34824e-05)
(-0.0119106 0 -1.60848e-05)
(-0.0118897 0 -0.000124732)
(-0.0119451 0 -0.000259377)
(-0.0119117 0 -4.42298e-05)
(-0.0119625 0 0.000366805)
(-0.0118529 0 0.000622469)
(-0.0114393 0 0.000369142)
(-0.011128 0 -0.000399099)
(-0.00985484 0 -0.00152872)
(-0.00869843 0 -0.00124005)
(-0.00752899 0 -0.00108171)
(-0.00671827 0 -0.000744517)
(-0.00604606 0 -0.000547004)
(-0.00547951 0 -0.00048096)
(-0.00500891 0 -0.000285558)
(-0.0045735 0 -0.000443226)
(-0.0041801 0 -0.00018354)
(-0.00388914 0 -0.000519214)
(-0.00340298 0 -9.79227e-05)
(-0.00325259 0 -0.000476791)
(-0.00274674 0 -2.80264e-05)
(-0.00241102 0 -0.000496033)
(-0.002291 0 5.44022e-05)
(-0.00170288 0 -0.000761044)
(-0.00111173 0 0.000384515)
(-0.00200276 0 -0.000829346)
(-0.000173671 0 -0.000286241)
(-0.00194938 0 1.7812e-05)
(0.00165924 0 0.000699989)
(-0.00290149 0 0.00187944)
(-9.75238e-05 0 -0.000910106)
(-0.000105943 0 -0.00158853)
(0.00210597 0 -0.00193253)
(0.00356791 0 -0.00175723)
(0.00505711 0 -0.00141113)
(0.00636361 0 -0.00112684)
(0.00745965 0 -0.000945982)
(0.00844243 0 -0.000846865)
(0.00937527 0 -0.000788968)
(0.0102658 0 -0.0007263)
(0.0111061 0 -0.000678236)
(0.0119223 0 -0.000655375)
(0.0127288 0 -0.00063955)
(0.0135283 0 -0.000641479)
(0.014336 0 -0.000640637)
(0.0151408 0 -0.000626394)
(0.0159259 0 -0.000614242)
(0.0167052 0 -0.000620954)
(0.0175024 0 -0.000630424)
(0.0183024 0 -0.000621817)
(0.0190885 0 -0.000615156)
(0.0198753 0 -0.000623306)
(0.0206784 0 -0.000637623)
(0.0214934 0 -0.000640794)
(0.022302 0 -0.000627772)
(0.0230977 0 -0.00062127)
(0.0238899 0 -0.000621714)
(0.0246878 0 -0.000631066)
(0.0254951 0 -0.000635023)
(0.0263029 0 -0.000633283)
(0.0271125 0 -0.000641061)
(0.027933 0 -0.000645346)
(0.0287514 0 -0.000638567)
(0.0295567 0 -0.000629505)
(0.0303561 0 -0.000628252)
(0.0311622 0 -0.000637113)
(0.0319826 0 -0.000651608)
(0.0328185 0 -0.000663386)
(0.0336614 0 -0.00066534)
(0.0345068 0 -0.000667998)
(0.035352 0 -0.000662164)
(0.0361916 0 -0.000660231)
(0.0370348 0 -0.000664322)
(0.0378835 0 -0.000663189)
(0.038728 0 -0.000662731)
(0.0395728 0 -0.000668916)
(0.0404279 0 -0.000676199)
(0.0412875 0 -0.000677094)
(0.0421434 0 -0.000671793)
(0.0429928 0 -0.000664354)
(0.0438344 0 -0.000657571)
(0.0446722 0 -0.000654951)
(0.0455105 0 -0.000656775)
(0.0463512 0 -0.000661191)
(0.0471967 0 -0.000664684)
(0.0480457 0 -0.000667633)
(0.0488962 0 -0.000669267)
(0.0497487 0 -0.00066905)
(0.050601 0 -0.000668966)
(0.0514527 0 -0.000668847)
(0.0523042 0 -0.00066929)
(0.0531572 0 -0.000670273)
(0.0540119 0 -0.000671895)
(0.0548709 0 -0.000673123)
(0.0557217 0 -0.000671167)
(0.0565855 0 -0.00067077)
(0.0574154 0 -0.000668109)
(0.0583116 0 -0.000673116)
(0.0591042 0 -0.000672959)
(0.0600527 0 -0.000672237)
(0.0608018 0 -0.000670632)
(0.0617552 0 -0.000670536)
(0.0625145 0 -0.000668791)
(0.063453 0 -0.000667773)
(0.0642887 0 -0.000673864)
(0.0649908 0 -0.000683235)
(0.0662312 0 -0.000705688)
(0.0663197 0 -0.000720788)
(0.0696853 0 -0.00073481)
(0.0679883 0 -0.000815035)
(-0.166566 0 0.0627848)
(-0.125262 0 0.0185917)
(-0.140322 0 0.00905019)
(-0.131812 0 -0.0112248)
(-0.119866 0 -0.0333914)
(-0.105577 0 -0.0468621)
(-0.0941069 0 -0.0470457)
(-0.0833213 0 -0.0411153)
(-0.0717171 0 -0.0346839)
(-0.0621442 0 -0.0321525)
(-0.0522762 0 -0.0320328)
(-0.0441719 0 -0.0325558)
(-0.0360305 0 -0.0305062)
(-0.0298694 0 -0.0243159)
(-0.0282867 0 -0.0122335)
(-0.0305747 0 0.00683483)
(-0.0347513 0 0.0285122)
(-0.0412254 0 0.0389626)
(-0.0504906 0 0.0389971)
(-0.0588004 0 0.0305123)
(-0.0648205 0 0.0174858)
(-0.069693 0 0.00708779)
(-0.0725054 0 -0.00373224)
(-0.0706329 0 -0.0110981)
(-0.0676076 0 -0.0160068)
(-0.0646994 0 -0.0166868)
(-0.0618348 0 -0.0148414)
(-0.0601343 0 -0.0108919)
(-0.0600435 0 -0.00511796)
(-0.0622737 0 -0.000211459)
(-0.0672388 0 0.00384291)
(-0.0725043 0 0.0111424)
(-0.0792788 0 0.01967)
(-0.0876926 0 0.0257871)
(-0.0957236 0 0.0279221)
(-0.101997 0 0.0235847)
(-0.107055 0 0.0162987)
(-0.111903 0 0.012756)
(-0.117459 0 0.0134005)
(-0.122521 0 0.0137527)
(-0.126602 0 0.010127)
(-0.12893 0 0.0027251)
(-0.129272 0 -0.00105147)
(-0.129511 0 -0.00175979)
(-0.129305 0 -0.00110201)
(-0.128951 0 0.00220114)
(-0.129289 0 0.00353072)
(-0.130004 0 0.00319654)
(-0.130145 0 0.000198389)
(-0.129805 0 -0.00325566)
(-0.129113 0 -0.00408105)
(-0.127985 0 -0.00306361)
(-0.126704 0 3.16009e-05)
(-0.126485 0 0.00116072)
(-0.126619 0 0.000907592)
(-0.126592 0 -0.00102412)
(-0.126299 0 -0.00367039)
(-0.124578 0 -0.00592443)
(-0.122287 0 -0.00736783)
(-0.119607 0 -0.00858635)
(-0.117026 0 -0.00931226)
(-0.114883 0 -0.00838984)
(-0.113315 0 -0.00566553)
(-0.112056 0 -0.00310242)
(-0.110362 0 -0.00163749)
(-0.107817 0 -0.00117809)
(-0.10478 0 -0.00210851)
(-0.102132 0 -0.00208496)
(-0.100903 0 -0.00128237)
(-0.10021 0 -0.00166246)
(-0.0992473 0 -0.0036585)
(-0.0984544 0 -0.00637474)
(-0.0967247 0 -0.010024)
(-0.0938257 0 -0.0130633)
(-0.0900074 0 -0.0164393)
(-0.0861523 0 -0.0196402)
(-0.0832189 0 -0.0229274)
(-0.0828236 0 -0.0269397)
(-0.0812805 0 -0.0277297)
(-0.0741475 0 -0.0140853)
(-0.0690703 0 -0.0126541)
(-0.0424104 0 -0.00507992)
(-0.0392957 0 -0.000260341)
(-0.0298581 0 0.00345415)
(-0.0285502 0 0.00682281)
(-0.0265379 0 0.00195411)
(-0.0267002 0 0.00296561)
(-0.0265667 0 0.00317704)
(-0.0302196 0 0.00406505)
(-0.0326125 0 0.00429518)
(-0.0351293 0 0.00342334)
(-0.037797 0 0.00187017)
(-0.0393255 0 0.000699272)
(-0.0407754 0 0.000774914)
(-0.041161 0 0.000786155)
(-0.0418987 0 0.0013471)
(-0.0421001 0 0.00179555)
(-0.0423914 0 0.00206964)
(-0.0421873 0 0.00158261)
(-0.0434919 0 0.00483671)
(-0.0453815 0 0.00649503)
(-0.0488602 0 0.00378235)
(-0.0475884 0 -0.00154227)
(-0.0507125 0 -0.00274684)
(-0.0512466 0 -0.000954054)
(-0.0514241 0 0.001072)
(-0.0501766 0 0.00170692)
(-0.049875 0 0.00195232)
(-0.0494372 0 0.0010697)
(-0.0494683 0 -0.000538542)
(-0.0496017 0 -0.00124419)
(-0.0496058 0 -0.00174221)
(-0.0492701 0 -0.00187714)
(-0.0486855 0 -0.00181307)
(-0.0482783 0 -0.00244097)
(-0.04771 0 -0.0035028)
(-0.0475156 0 -0.00505299)
(-0.0479193 0 -0.00472265)
(-0.0460046 0 -0.00281762)
(-0.0450609 0 -0.00262909)
(-0.0399422 0 -0.00128014)
(-0.0398838 0 -0.000267784)
(-0.038339 0 0.00129946)
(-0.0382479 0 0.00112917)
(-0.037896 0 -0.000244952)
(-0.0380055 0 -0.000220247)
(-0.0383996 0 -0.000326738)
(-0.0383704 0 -0.000293548)
(-0.0381328 0 -0.000236289)
(-0.0379997 0 -0.000327461)
(-0.0377662 0 -0.000515966)
(-0.0375945 0 -0.000517684)
(-0.0374482 0 -0.000526157)
(-0.0372374 0 -0.000537198)
(-0.036977 0 -0.000609738)
(-0.0366813 0 -0.000741284)
(-0.0363476 0 -0.00079338)
(-0.0360194 0 -0.000811249)
(-0.0356796 0 -0.000805323)
(-0.0353489 0 -0.000836147)
(-0.0349872 0 -0.000902557)
(-0.0345989 0 -0.000963461)
(-0.0341892 0 -0.00100187)
(-0.0337708 0 -0.000977231)
(-0.0333484 0 -0.000981122)
(-0.032907 0 -0.00103058)
(-0.0324433 0 -0.00110533)
(-0.0319469 0 -0.00119902)
(-0.0314321 0 -0.00124841)
(-0.0309331 0 -0.00121534)
(-0.0304298 0 -0.00117843)
(-0.029896 0 -0.00122029)
(-0.0293267 0 -0.0013676)
(-0.0287182 0 -0.00145724)
(-0.0281108 0 -0.00145543)
(-0.0275187 0 -0.00145285)
(-0.0269044 0 -0.00148277)
(-0.0262411 0 -0.00154153)
(-0.0255395 0 -0.00159828)
(-0.0248337 0 -0.00164659)
(-0.0241345 0 -0.00168957)
(-0.0234237 0 -0.00174782)
(-0.0226745 0 -0.00177715)
(-0.021931 0 -0.00177997)
(-0.0211509 0 -0.00185734)
(-0.0203277 0 -0.00195195)
(-0.0194884 0 -0.00197754)
(-0.0186571 0 -0.00193708)
(-0.0178337 0 -0.00197146)
(-0.0169731 0 -0.00209058)
(-0.0160691 0 -0.00217759)
(-0.0151486 0 -0.00217018)
(-0.0142489 0 -0.00211106)
(-0.0133293 0 -0.00214084)
(-0.0123945 0 -0.00226464)
(-0.011435 0 -0.00236086)
(-0.0104398 0 -0.00241701)
(-0.00943143 0 -0.00242076)
(-0.00840796 0 -0.00234145)
(-0.00740889 0 -0.00228929)
(-0.00642175 0 -0.00232588)
(-0.00543286 0 -0.00236488)
(-0.00444008 0 -0.00244739)
(-0.00341034 0 -0.0024887)
(-0.00237773 0 -0.00246057)
(-0.00134232 0 -0.00239274)
(-0.000341095 0 -0.00227099)
(0.00061045 0 -0.00222334)
(0.00154397 0 -0.00224455)
(0.00247763 0 -0.00225483)
(0.00341966 0 -0.00220899)
(0.00435578 0 -0.00211916)
(0.00527053 0 -0.00204673)
(0.00614763 0 -0.00200605)
(0.00699554 0 -0.00200645)
(0.00783675 0 -0.00201974)
(0.00868457 0 -0.00200963)
(0.00952342 0 -0.00195682)
(0.0103402 0 -0.00186445)
(0.0111297 0 -0.00180548)
(0.0119049 0 -0.00179183)
(0.0126771 0 -0.00180971)
(0.0134433 0 -0.00180183)
(0.0141941 0 -0.00175888)
(0.0149234 0 -0.00170356)
(0.0156395 0 -0.00165718)
(0.01635 0 -0.00163867)
(0.0170482 0 -0.00163311)
(0.0177321 0 -0.00159992)
(0.0183916 0 -0.00152026)
(0.0190288 0 -0.0014665)
(0.0196611 0 -0.00147388)
(0.0202885 0 -0.00146842)
(0.0209028 0 -0.00144007)
(0.0215008 0 -0.00139784)
(0.0220795 0 -0.00132457)
(0.0226336 0 -0.00125312)
(0.0231665 0 -0.00121945)
(0.0236853 0 -0.00121231)
(0.0241961 0 -0.00119608)
(0.024692 0 -0.00116015)
(0.0251699 0 -0.00111111)
(0.0256281 0 -0.00103765)
(0.0260625 0 -0.000974425)
(0.0264744 0 -0.000931864)
(0.0268656 0 -0.000903799)
(0.0272412 0 -0.000876973)
(0.0276011 0 -0.000838021)
(0.0279427 0 -0.000785753)
(0.0282613 0 -0.000711151)
(0.0285528 0 -0.000649466)
(0.0288231 0 -0.000607225)
(0.0290785 0 -0.000575901)
(0.0293174 0 -0.000543115)
(0.0295373 0 -0.000496767)
(0.0297366 0 -0.000441488)
(0.0299113 0 -0.000386832)
(0.0300597 0 -0.00033335)
(0.0301851 0 -0.000279717)
(0.0302922 0 -0.000229417)
(0.0303844 0 -0.000183972)
(0.0304617 0 -0.000146044)
(0.0305185 0 -0.00011381)
(0.0305537 0 -7.23195e-05)
(0.0305702 0 -2.9171e-05)
(0.0305652 0 2.48754e-05)
(0.0305398 0 9.01588e-05)
(0.0304997 0 0.000125093)
(0.0304455 0 0.000142615)
(0.0303771 0 0.000174158)
(0.0302897 0 0.000214084)
(0.0301834 0 0.000259613)
(0.0300606 0 0.000309675)
(0.0299243 0 0.000342913)
(0.0297777 0 0.000369699)
(0.0296165 0 0.000395515)
(0.0294413 0 0.000425243)
(0.0292469 0 0.000464606)
(0.0290353 0 0.000496982)
(0.028818 0 0.000525038)
(0.0285931 0 0.000550255)
(0.0283565 0 0.000568404)
(0.0281086 0 0.000589513)
(0.0278491 0 0.000620059)
(0.0275746 0 0.000660089)
(0.027286 0 0.000697806)
(0.0269892 0 0.000710522)
(0.0266875 0 0.000713483)
(0.0263792 0 0.000730724)
(0.026062 0 0.000752132)
(0.0257341 0 0.00077269)
(0.0253963 0 0.000797638)
(0.0250501 0 0.000829154)
(0.0246974 0 0.0008526)
(0.0243373 0 0.000864604)
(0.0239677 0 0.000871858)
(0.023591 0 0.000883782)
(0.0232091 0 0.000898298)
(0.0228218 0 0.000910555)
(0.0224314 0 0.000922718)
(0.0220322 0 0.00094852)
(0.0216227 0 0.000979633)
(0.0212067 0 0.000990325)
(0.020787 0 0.000986914)
(0.0203662 0 0.000994488)
(0.0199377 0 0.00100953)
(0.0195017 0 0.00102103)
(0.0190612 0 0.00103385)
(0.0186173 0 0.00105388)
(0.0181683 0 0.00106896)
(0.017716 0 0.00107624)
(0.0172591 0 0.00107973)
(0.016796 0 0.00108606)
(0.0163275 0 0.00109383)
(0.0158577 0 0.00110061)
(0.0153875 0 0.00111476)
(0.0149156 0 0.00112726)
(0.0144392 0 0.00113457)
(0.0139538 0 0.00113751)
(0.0134657 0 0.00113723)
(0.0129793 0 0.00113593)
(0.0124965 0 0.0011446)
(0.0120114 0 0.0011549)
(0.0115224 0 0.00115558)
(0.0110277 0 0.00115286)
(0.0105369 0 0.00114613)
(0.010053 0 0.00114629)
(0.00956935 0 0.00114665)
(0.00908333 0 0.00114252)
(0.00859602 0 0.00113354)
(0.00811626 0 0.00112261)
(0.00764116 0 0.00111742)
(0.00716845 0 0.00111719)
(0.00669745 0 0.00111234)
(0.00622555 0 0.00109801)
(0.00576069 0 0.001083)
(0.00530382 0 0.00107259)
(0.00485066 0 0.00106276)
(0.00440249 0 0.00105356)
(0.00395677 0 0.00104357)
(0.0035147 0 0.00103293)
(0.00307765 0 0.00102167)
(0.0026468 0 0.00101101)
(0.00222111 0 0.00100166)
(0.00180063 0 0.000989308)
(0.00138518 0 0.000974103)
(0.000974713 0 0.000960983)
(0.000569367 0 0.000948501)
(0.000170867 0 0.000933158)
(-0.000220236 0 0.000914321)
(-0.000603508 0 0.000894272)
(-0.000979941 0 0.000876023)
(-0.0013492 0 0.000860602)
(-0.00171201 0 0.00084755)
(-0.00206684 0 0.000831561)
(-0.00241514 0 0.000810378)
(-0.00275529 0 0.000786803)
(-0.00308563 0 0.000766989)
(-0.00340835 0 0.000747728)
(-0.00372145 0 0.000728537)
(-0.00402669 0 0.000709502)
(-0.00432386 0 0.000690005)
(-0.00461339 0 0.000669882)
(-0.00489423 0 0.000649791)
(-0.00516728 0 0.000630308)
(-0.00543113 0 0.000609802)
(-0.00568535 0 0.000589595)
(-0.00593124 0 0.000569592)
(-0.00616887 0 0.000550088)
(-0.00639876 0 0.000531232)
(-0.00662074 0 0.000513144)
(-0.00683496 0 0.000495035)
(-0.00704127 0 0.000476416)
(-0.00723965 0 0.000457675)
(-0.00743018 0 0.000439838)
(-0.00761329 0 0.000422915)
(-0.00778943 0 0.000406544)
(-0.00795903 0 0.000390632)
(-0.00812211 0 0.000374379)
(-0.00827766 0 0.000357852)
(-0.00842614 0 0.000342104)
(-0.00856821 0 0.000327053)
(-0.00870408 0 0.000312215)
(-0.00883381 0 0.00029819)
(-0.00895754 0 0.00028531)
(-0.00907551 0 0.00027266)
(-0.00918752 0 0.000259451)
(-0.00929399 0 0.000245315)
(-0.00939499 0 0.000231672)
(-0.00949097 0 0.000220182)
(-0.00958224 0 0.000209919)
(-0.00966897 0 0.000199078)
(-0.00975056 0 0.000186047)
(-0.00982664 0 0.000173781)
(-0.00989761 0 0.000162769)
(-0.00996435 0 0.000153133)
(-0.0100274 0 0.000143966)
(-0.0100868 0 0.000134878)
(-0.0101419 0 0.000126515)
(-0.010193 0 0.000118843)
(-0.0102399 0 0.000110131)
(-0.0102836 0 9.97553e-05)
(-0.010324 0 9.14875e-05)
(-0.0103612 0 8.46958e-05)
(-0.0103958 0 7.84912e-05)
(-0.0104276 0 7.18091e-05)
(-0.0104564 0 6.57925e-05)
(-0.0104821 0 5.91084e-05)
(-0.0105057 0 5.26226e-05)
(-0.0105266 0 4.67384e-05)
(-0.0105456 0 4.25817e-05)
(-0.0105617 0 3.76154e-05)
(-0.0105758 0 3.20036e-05)
(-0.0105878 0 2.61933e-05)
(-0.0105986 0 2.17871e-05)
(-0.0106074 0 1.77463e-05)
(-0.0106146 0 1.3366e-05)
(-0.0106193 0 1.12349e-05)
(-0.0106231 0 8.88663e-06)
(-0.0106252 0 6.98309e-06)
(-0.0106279 0 2.97179e-06)
(-0.0106288 0 6.89172e-07)
(-0.0106291 0 -2.60235e-06)
(-0.0106278 0 -2.42044e-06)
(-0.0106266 0 -1.90257e-06)
(-0.0106248 0 1.83757e-06)
(-0.0106223 0 3.08584e-06)
(-0.0106231 0 -2.46623e-06)
(-0.010618 0 -1.01979e-06)
(-0.0106258 0 -4.0216e-06)
(-0.0106263 0 2.11406e-06)
(-0.0106373 0 -5.63527e-06)
(-0.0106347 0 2.27241e-06)
(-0.0106369 0 -4.89648e-06)
(-0.0106305 0 1.52277e-06)
(-0.0106152 0 -2.68805e-05)
(-0.010617 0 -1.01726e-05)
(-0.010647 0 -5.7351e-05)
(-0.0106273 0 -1.26857e-05)
(-0.0106467 0 3.10353e-05)
(-0.0105952 0 3.50415e-05)
(-0.0104406 0 -4.39087e-05)
(-0.0104632 0 -4.85926e-05)
(-0.0106173 0 -0.00039374)
(-0.0106 0 -0.000208046)
(-0.0109823 0 0.000285557)
(-0.0110323 0 0.000318429)
(-0.0120246 0 0.000487984)
(-0.0118566 0 0.000528292)
(-0.0121573 0 0.000915664)
(-0.0119225 0 0.000697056)
(-0.0120734 0 0.000302801)
(-0.0120789 0 0.000284764)
(-0.0121194 0 0.000204097)
(-0.0121201 0 0.000195658)
(-0.0121086 0 0.000178119)
(-0.012027 0 2.23418e-05)
(-0.0119827 0 -4.41288e-05)
(-0.0119666 0 -0.000150334)
(-0.0120958 0 -0.000265446)
(-0.0120896 0 -0.000160142)
(-0.0121733 0 0.00016432)
(-0.0118708 0 0.000296554)
(-0.0113661 0 7.32477e-05)
(-0.0108578 0 -0.000409802)
(-0.00963401 0 -0.00147412)
(-0.00857532 0 -0.00143472)
(-0.00740714 0 -0.00213821)
(-0.00701931 0 -0.00236313)
(-0.00666957 0 -0.00233102)
(-0.0064214 0 -0.00210394)
(-0.00595076 0 -0.00153067)
(-0.0057172 0 -0.00144559)
(-0.00516409 0 -0.00110383)
(-0.00493901 0 -0.00117347)
(-0.00440046 0 -0.000826137)
(-0.00427019 0 -0.000924191)
(-0.00372052 0 -0.000683706)
(-0.00337946 0 -0.00092054)
(-0.00320179 0 -0.000524083)
(-0.00261344 0 -0.00131223)
(-0.00208977 0 -0.000182635)
(-0.00266813 0 -0.0012244)
(-0.00121227 0 -0.00113688)
(-0.00297976 0 0.00010292)
(0.00119797 0 -0.000566498)
(-0.00386829 0 0.000259866)
(-0.000173826 0 -0.0026144)
(-0.00115423 0 0.000679517)
(0.00214637 0 -0.000225028)
(0.00357491 0 -0.00270557)
(0.00447086 0 -0.00297204)
(0.00528492 0 -0.00337776)
(0.00596389 0 -0.00339462)
(0.00669843 0 -0.0031112)
(0.00749552 0 -0.00272269)
(0.00830034 0 -0.00240786)
(0.00909483 0 -0.00222919)
(0.00988199 0 -0.00213194)
(0.0106665 0 -0.00202505)
(0.0114519 0 -0.00194622)
(0.0122416 0 -0.00191947)
(0.0130362 0 -0.00189968)
(0.013834 0 -0.00190809)
(0.0146279 0 -0.00190207)
(0.0154143 0 -0.00187401)
(0.0161997 0 -0.00185115)
(0.016988 0 -0.00186765)
(0.0177808 0 -0.0018873)
(0.0185747 0 -0.00187223)
(0.0193705 0 -0.00186128)
(0.0201714 0 -0.0018804)
(0.0209754 0 -0.00190694)
(0.0217809 0 -0.00191243)
(0.0225879 0 -0.00189023)
(0.023395 0 -0.00188033)
(0.0242045 0 -0.00187966)
(0.0250142 0 -0.00189387)
(0.0258225 0 -0.0019037)
(0.0266372 0 -0.00190977)
(0.0274578 0 -0.00192508)
(0.0282769 0 -0.00192842)
(0.0290927 0 -0.0019122)
(0.0299072 0 -0.00189402)
(0.0307225 0 -0.0018964)
(0.0315431 0 -0.00191943)
(0.0323688 0 -0.0019511)
(0.0331973 0 -0.001976)
(0.0340292 0 -0.00198467)
(0.0348634 0 -0.00199152)
(0.0357004 0 -0.00198515)
(0.0365401 0 -0.00198695)
(0.0373843 0 -0.00199756)
(0.0382298 0 -0.00199515)
(0.0390747 0 -0.00199233)
(0.0399207 0 -0.00200305)
(0.0407668 0 -0.00201644)
(0.0416124 0 -0.00201799)
(0.0424573 0 -0.00200767)
(0.0433025 0 -0.00199403)
(0.0441493 0 -0.00198312)
(0.0449976 0 -0.00197917)
(0.0458458 0 -0.00198261)
(0.0466935 0 -0.00198948)
(0.0475412 0 -0.00199682)
(0.0483904 0 -0.00200347)
(0.0492414 0 -0.00200746)
(0.050093 0 -0.0020086)
(0.0509456 0 -0.00200829)
(0.051798 0 -0.00200774)
(0.0526502 0 -0.0020097)
(0.0535043 0 -0.00201455)
(0.0543585 0 -0.00201705)
(0.0552146 0 -0.00201802)
(0.0560628 0 -0.00201214)
(0.056926 0 -0.00201217)
(0.0577581 0 -0.00201141)
(0.0586568 0 -0.00202081)
(0.0594454 0 -0.0020192)
(0.0603914 0 -0.00201605)
(0.0611413 0 -0.00201575)