/*--------------------------------*- C++ -*----------------------------------*\
| =========                 |                                                 |
| \\      /  F ield         | OpenFOAM: The Open Source CFD Toolbox           |
|  \\    /   O peration     | Version:  v2006                                 |
|   \\  /    A nd           | Website:  www.openfoam.com                      |
|    \\/     M anipulation  |                                                 |
\*---------------------------------------------------------------------------*/
FoamFile
{
    version     2.0;
    format      ascii;
    class       volScalarField;
    location    "5.2";
    object      nut;
}
// * * * * * * * * * * * * * * * * * * * * * * * * * * * * * * * * * * * * * //

dimensions      [0 2 -1 0 0 0 0];


internalField   nonuniform List<scalar> 
33000
(
2.11942e-09
1.09333e-09
1.80775e-09
1.72083e-09
2.08804e-09
2.36244e-09
2.85088e-09
3.19427e-09
3.4228e-09
3.66075e-09
3.77728e-09
3.36952e-09
2.54336e-09
2.12919e-09
1.97915e-09
1.81199e-09
1.69108e-09
1.64863e-09
1.70109e-09
1.80152e-09
1.84457e-09
1.86429e-09
2.08012e-09
2.75404e-09
4.17768e-09
6.42811e-09
8.90894e-09
1.06848e-08
1.19321e-08
1.28882e-08
1.35359e-08
1.36165e-08
1.33134e-08
1.29525e-08
1.26868e-08
1.26271e-08
1.25992e-08
1.24132e-08
1.20995e-08
1.18354e-08
1.17262e-08
1.16804e-08
1.14284e-08
1.09545e-08
1.05164e-08
1.0256e-08
1.01933e-08
1.0186e-08
1.00435e-08
9.74425e-09
9.38407e-09
9.11967e-09
8.99937e-09
8.91038e-09
8.7626e-09
8.56049e-09
8.3583e-09
8.17657e-09
8.0269e-09
7.87757e-09
7.663e-09
7.46881e-09
7.4025e-09
7.40904e-09
7.38473e-09
7.29123e-09
7.1414e-09
7.00227e-09
6.89671e-09
6.779e-09
6.59418e-09
6.36492e-09
6.12079e-09
5.85886e-09
5.54803e-09
5.2963e-09
4.80205e-09
4.85668e-09
5.97149e-09
5.77377e-09
5.92969e-09
6.30528e-09
6.16178e-09
7.37384e-09
8.13273e-09
8.93285e-09
9.87107e-09
1.01177e-08
1.0057e-08
1.00508e-08
1.03726e-08
1.03848e-08
1.04447e-08
1.0356e-08
1.00206e-08
9.60257e-09
9.08557e-09
8.41805e-09
7.79662e-09
8.53944e-09
1.07493e-08
1.46815e-08
1.52325e-08
1.44458e-08
1.75237e-08
2.1139e-08
2.5201e-08
2.81998e-08
2.95493e-08
2.39649e-08
2.02319e-08
1.93065e-08
1.84613e-08
1.83043e-08
1.8042e-08
1.69809e-08
1.6e-08
1.76809e-08
2.05036e-08
2.04971e-08
1.83421e-08
1.74369e-08
1.80764e-08
1.77549e-08
1.82558e-08
1.80411e-08
1.69362e-08
1.61508e-08
1.56971e-08
1.52491e-08
1.49973e-08
1.47197e-08
1.4348e-08
1.398e-08
1.36497e-08
1.33515e-08
1.30576e-08
1.2784e-08
1.25281e-08
1.22755e-08
1.20385e-08
1.18194e-08
1.16164e-08
1.14241e-08
1.12486e-08
1.10915e-08
1.09457e-08
1.08067e-08
1.06778e-08
1.0562e-08
1.04636e-08
1.03804e-08
1.03031e-08
1.02314e-08
1.01708e-08
1.01228e-08
1.00858e-08
1.00574e-08
1.00362e-08
1.00247e-08
1.00242e-08
1.00339e-08
1.0051e-08
1.00799e-08
1.01245e-08
1.01798e-08
1.02408e-08
1.03148e-08
1.04089e-08
1.05177e-08
1.06351e-08
1.0766e-08
1.09202e-08
1.1105e-08
1.13149e-08
1.15433e-08
1.1801e-08
1.21013e-08
1.24529e-08
1.28539e-08
1.33015e-08
1.38088e-08
1.44104e-08
1.51096e-08
1.58739e-08
1.67379e-08
1.77632e-08
1.89801e-08
2.04042e-08
2.20547e-08
2.39958e-08
2.62704e-08
2.90132e-08
3.24374e-08
3.66789e-08
4.20542e-08
4.8955e-08
5.77177e-08
6.85972e-08
8.14086e-08
9.49056e-08
9.59659e-08
9.63182e-08
9.66035e-08
8.70809e-08
7.5766e-08
6.63609e-08
5.88529e-08
5.29141e-08
4.81855e-08
4.42722e-08
4.09182e-08
3.80867e-08
3.57738e-08
3.38337e-08
3.21379e-08
3.06215e-08
2.92501e-08
2.80445e-08
2.69947e-08
2.60785e-08
2.52585e-08
2.45108e-08
2.38209e-08
2.31841e-08
2.26142e-08
2.20987e-08
2.16293e-08
2.12068e-08
2.08234e-08
2.04598e-08
2.0119e-08
1.98146e-08
1.95357e-08
1.92785e-08
1.90471e-08
1.88336e-08
1.86302e-08
1.84383e-08
1.82668e-08
1.81088e-08
1.79573e-08
1.78144e-08
1.76833e-08
1.75649e-08
1.74579e-08
1.73564e-08
1.72484e-08
1.71467e-08
1.70629e-08
1.69844e-08
1.69091e-08
1.6836e-08
1.67629e-08
1.66952e-08
1.6634e-08
1.65757e-08
1.65212e-08
1.6471e-08
1.64212e-08
1.63721e-08
1.63263e-08
1.62873e-08
1.62565e-08
1.62297e-08
1.62026e-08
1.61724e-08
1.61417e-08
1.61218e-08
1.6113e-08
1.61086e-08
1.61103e-08
1.61125e-08
1.6113e-08
1.61209e-08
1.61395e-08
1.61629e-08
1.61914e-08
1.62267e-08
1.6272e-08
1.63318e-08
1.63977e-08
1.64615e-08
1.65347e-08
1.66275e-08
1.67352e-08
1.68569e-08
1.69935e-08
1.71456e-08
1.73076e-08
1.74853e-08
1.76898e-08
1.79204e-08
1.81813e-08
1.84757e-08
1.8788e-08
1.91313e-08
1.9527e-08
1.99612e-08
2.0453e-08
2.10111e-08
2.16185e-08
2.22988e-08
2.30726e-08
2.39561e-08
2.49847e-08
2.61672e-08
2.75632e-08
2.92168e-08
3.12107e-08
3.36096e-08
3.64666e-08
3.98977e-08
4.41017e-08
4.94024e-08
4.98855e-08
4.98297e-08
4.98305e-08
4.98877e-08
5.00018e-08
5.01705e-08
5.03857e-08
5.06218e-08
5.0843e-08
5.10377e-08
5.12012e-08
5.13305e-08
5.14279e-08
5.14978e-08
5.15406e-08
5.1556e-08
5.15436e-08
4.85542e-08
4.54582e-08
4.27841e-08
4.04646e-08
3.84419e-08
3.66656e-08
3.50974e-08
3.36975e-08
3.24341e-08
3.12924e-08
3.02557e-08
2.93188e-08
2.84719e-08
2.76926e-08
2.69709e-08
2.63027e-08
2.56883e-08
2.5124e-08
2.46027e-08
2.41149e-08
2.36558e-08
2.32305e-08
2.28373e-08
2.24687e-08
2.21209e-08
2.17949e-08
2.14912e-08
2.12066e-08
2.09387e-08
2.06877e-08
2.04511e-08
2.02294e-08
2.00218e-08
1.98264e-08
1.96423e-08
1.94675e-08
1.93025e-08
1.9147e-08
1.90014e-08
1.8864e-08
1.87324e-08
1.86065e-08
1.84877e-08
1.83756e-08
1.82689e-08
1.8167e-08
1.80702e-08
1.79796e-08
1.78929e-08
1.78091e-08
1.77278e-08
1.76498e-08
1.75751e-08
1.75041e-08
1.74358e-08
1.73709e-08
1.73062e-08
1.72426e-08
1.71823e-08
1.7127e-08
1.70692e-08
1.70135e-08
1.69605e-08
1.69101e-08
1.68579e-08
1.68104e-08
1.67635e-08
1.672e-08
1.66747e-08
1.66314e-08
1.6587e-08
1.65457e-08
1.65043e-08
1.64609e-08
1.64298e-08
1.63817e-08
1.63559e-08
1.62981e-08
1.62616e-08
1.61963e-08
1.61514e-08
1.61054e-08
1.60642e-08
1.60523e-08
1.60273e-08
1.59205e-08
1.58792e-08
1.58008e-08
1.57733e-08
1.60275e-08
1.60869e-08
1.57559e-08
1.56447e-08
1.49475e-08
1.49001e-08
1.50848e-08
1.53756e-08
1.46761e-08
1.33801e-08
1.31221e-08
1.31955e-08
1.3132e-08
1.30977e-08
1.30101e-08
1.29594e-08
1.28923e-08
1.28609e-08
1.29313e-08
1.2936e-08
1.27606e-08
1.27506e-08
1.24449e-08
1.24583e-08
1.2558e-08
1.2682e-08
1.24045e-08
1.18746e-08
1.17922e-08
1.18404e-08
1.18653e-08
1.18625e-08
1.20016e-08
1.19543e-08
1.20509e-08
1.19052e-08
1.196e-08
1.18019e-08
1.19963e-08
1.25328e-08
1.27903e-08
1.24112e-08
1.22264e-08
1.03948e-08
1.07288e-08
9.73771e-09
1.0471e-08
9.27445e-09
8.27395e-09
8.42707e-09
8.9752e-09
9.33206e-09
9.52117e-09
9.63629e-09
9.7102e-09
9.75979e-09
9.79551e-09
9.82228e-09
9.84468e-09
9.86887e-09
9.89693e-09
9.92173e-09
9.94905e-09
9.98165e-09
1.00127e-08
1.0048e-08
1.00882e-08
1.01285e-08
1.0168e-08
1.0212e-08
1.02617e-08
1.03116e-08
1.03641e-08
1.0418e-08
1.04734e-08
1.05315e-08
1.05913e-08
1.06526e-08
1.07153e-08
1.07816e-08
1.0846e-08
1.09069e-08
1.09715e-08
1.10371e-08
1.11035e-08
1.11734e-08
1.12452e-08
1.1318e-08
1.13938e-08
1.14729e-08
1.15554e-08
1.16414e-08
1.17271e-08
1.18191e-08
1.19191e-08
1.20181e-08
1.21189e-08
1.22222e-08
1.23269e-08
1.24328e-08
1.25409e-08
1.26522e-08
1.27685e-08
1.28906e-08
1.30179e-08
1.31478e-08
1.32781e-08
1.34108e-08
1.35509e-08
1.37004e-08
1.38606e-08
1.40255e-08
1.41882e-08
1.43533e-08
1.45303e-08
1.47221e-08
1.49194e-08
1.5112e-08
1.53078e-08
1.55255e-08
1.57502e-08
1.59662e-08
1.61879e-08
1.63341e-08
1.69865e-08
1.61873e-08
1.86411e-08
1.38721e-08
2.09723e-08
2.37246e-09
3.32758e-09
2.65875e-09
8.3762e-09
4.76189e-09
7.38653e-09
6.2835e-09
6.79424e-09
7.05435e-09
7.59406e-09
7.43516e-09
4.93683e-09
4.16231e-09
4.43708e-09
4.81813e-09
5.49853e-09
6.6791e-09
9.06589e-09
1.38438e-08
2.22874e-08
3.10675e-08
3.55846e-08
3.87455e-08
4.33992e-08
5.31044e-08
6.28685e-08
7.10816e-08
8.78259e-08
9.6954e-08
9.48412e-08
9.18216e-08
8.4359e-08
7.33346e-08
5.9337e-08
4.63836e-08
4.32486e-08
4.91913e-08
5.32327e-08
5.20698e-08
4.95534e-08
4.25405e-08
3.51805e-08
3.22688e-08
3.01233e-08
2.68063e-08
2.70025e-08
3.11534e-08
3.43311e-08
3.37499e-08
3.01408e-08
2.62394e-08
2.48777e-08
2.75975e-08
3.31022e-08
3.64928e-08
3.56111e-08
3.21215e-08
2.9549e-08
2.68757e-08
2.58636e-08
2.85626e-08
3.18972e-08
3.68125e-08
4.66104e-08
5.2999e-08
5.38077e-08
5.93362e-08
6.24189e-08
7.31473e-08
8.16341e-08
7.3866e-08
6.4842e-08
4.75991e-08
3.23005e-08
2.46565e-08
2.37037e-08
2.77908e-08
2.77974e-08
4.08918e-08
3.91144e-08
2.19329e-08
3.5199e-08
6.04013e-08
6.44043e-08
6.54747e-08
6.56195e-08
6.22492e-08
5.66153e-08
5.09605e-08
2.69155e-08
1.41706e-08
1.32514e-08
1.15855e-08
1.47729e-08
1.73727e-08
1.49438e-08
1.60229e-08
1.06243e-08
9.20553e-09
1.05764e-08
1.44741e-08
1.29349e-08
1.12022e-08
1.2633e-08
1.23067e-08
1.10315e-08
7.38419e-09
1.0183e-08
1.40099e-08
7.84708e-09
1.22521e-08
1.52424e-08
4.06838e-08
3.9077e-08
2.42135e-08
1.63694e-08
1.53188e-08
2.22092e-08
3.12611e-08
1.41799e-08
9.68381e-09
1.64698e-08
2.74913e-08
2.54776e-08
2.08303e-08
1.90849e-08
1.64695e-08
2.41662e-08
2.7285e-08
3.23617e-08
3.47551e-08
2.97843e-08
2.78077e-08
2.93931e-08
3.10134e-08
3.17525e-08
3.2136e-08
3.32795e-08
3.34505e-08
3.38703e-08
3.51445e-08
3.68327e-08
3.90875e-08
4.20072e-08
4.51316e-08
4.85544e-08
5.23789e-08
5.70688e-08
6.3531e-08
7.21312e-08
8.23702e-08
9.49647e-08
1.10779e-07
1.33843e-07
1.3577e-07
1.35457e-07
1.35314e-07
1.35201e-07
1.34957e-07
1.3471e-07
1.34635e-07
1.34451e-07
1.11099e-07
9.25297e-08
7.95628e-08
7.05245e-08
6.29095e-08
5.57712e-08
5.01076e-08
4.59126e-08
4.23423e-08
3.87618e-08
3.56013e-08
3.30154e-08
3.0744e-08
2.87394e-08
2.68458e-08
2.51565e-08
2.37728e-08
2.23941e-08
2.10506e-08
1.99268e-08
1.9058e-08
1.8316e-08
1.75763e-08
1.6965e-08
1.64614e-08
1.59364e-08
1.54744e-08
1.51699e-08
1.50184e-08
1.49693e-08
1.49574e-08
1.49377e-08
1.48977e-08
1.4954e-08
1.51922e-08
1.55499e-08
1.58996e-08
1.62349e-08
1.66572e-08
1.7225e-08
1.78606e-08
1.84602e-08
1.90859e-08
1.97541e-08
2.05284e-08
2.14306e-08
2.23197e-08
2.31284e-08
2.3916e-08
2.49013e-08
2.61548e-08
2.74289e-08
2.86711e-08
2.99982e-08
3.1332e-08
3.2707e-08
3.42633e-08
3.61883e-08
3.85501e-08
4.08015e-08
4.31064e-08
4.55624e-08
4.81678e-08
5.12033e-08
5.49451e-08
5.89904e-08
6.35751e-08
6.86565e-08
7.36578e-08
7.90342e-08
8.63314e-08
9.5593e-08
1.06388e-07
1.18257e-07
1.29859e-07
1.41175e-07
1.55605e-07
1.78119e-07
2.08836e-07
2.49419e-07
2.95304e-07
3.22033e-07
3.21365e-07
3.20293e-07
3.18897e-07
3.17809e-07
3.17245e-07
3.1653e-07
3.15357e-07
3.14024e-07
3.12845e-07
3.11806e-07
3.10766e-07
3.09925e-07
3.09383e-07
3.08795e-07
3.07972e-07
2.8482e-07
2.47673e-07
2.27035e-07
2.15127e-07
2.04984e-07
1.97573e-07
1.88626e-07
1.76824e-07
1.64192e-07
1.52322e-07
1.44415e-07
1.39023e-07
1.33614e-07
1.27046e-07
1.20246e-07
1.14656e-07
1.09879e-07
1.04852e-07
9.93379e-08
9.42467e-08
8.99271e-08
8.66214e-08
8.36996e-08
8.00438e-08
7.58139e-08
7.20945e-08
6.92074e-08
6.66705e-08
6.39647e-08
6.11504e-08
5.86325e-08
5.61977e-08
5.38926e-08
5.18898e-08
4.99165e-08
4.79193e-08
4.60571e-08
4.42837e-08
4.29219e-08
4.16372e-08
4.00771e-08
3.85553e-08
3.73065e-08
3.63692e-08
3.55798e-08
3.4566e-08
3.3567e-08
3.28742e-08
3.23803e-08
3.18809e-08
3.14249e-08
3.10925e-08
3.08761e-08
3.08697e-08
3.0915e-08
3.096e-08
3.11382e-08
3.15015e-08
3.20558e-08
3.27486e-08
3.3479e-08
3.42826e-08
3.52322e-08
3.63566e-08
3.76341e-08
3.90294e-08
4.04349e-08
4.18781e-08
4.34247e-08
4.51124e-08
4.69676e-08
4.89145e-08
5.09635e-08
5.3156e-08
5.54619e-08
5.79321e-08
6.06156e-08
6.34742e-08
6.65449e-08
6.997e-08
7.37604e-08
7.78458e-08
8.22204e-08
8.70354e-08
9.24469e-08
9.82518e-08
1.04648e-07
1.11891e-07
1.19995e-07
1.29113e-07
1.39301e-07
1.5096e-07
1.64267e-07
1.79452e-07
1.96955e-07
2.17901e-07
2.43194e-07
2.72969e-07
3.08219e-07
3.51809e-07
3.93663e-07
3.92945e-07
3.91976e-07
3.90971e-07
3.89987e-07
3.89291e-07
3.88725e-07
3.87981e-07
3.87123e-07
3.86332e-07
3.85741e-07
3.85522e-07
3.85614e-07
3.85676e-07
3.85617e-07
3.85707e-07
3.85973e-07
3.86162e-07
3.86299e-07
3.8643e-07
3.86804e-07
3.85312e-07
3.70752e-07
3.59607e-07
3.49082e-07
3.38991e-07
3.31235e-07
3.25508e-07
3.19685e-07
3.14131e-07
3.09629e-07
3.06539e-07
3.02983e-07
2.99631e-07
2.94965e-07
2.93292e-07
2.90874e-07
2.89909e-07
2.87784e-07
2.86028e-07
2.82072e-07
2.82896e-07
2.80988e-07
2.82751e-07
2.81198e-07
2.86738e-07
2.79467e-07
2.86181e-07
2.81398e-07
2.89498e-07
3.08836e-07
3.14628e-07
3.35187e-07
3.05749e-07
3.12474e-07
2.71737e-07
2.6536e-07
3.4806e-07
3.79661e-07
3.07123e-07
2.88845e-07
1.53135e-07
1.37273e-07
1.61796e-07
1.5895e-07
1.41428e-07
1.43402e-07
5.28144e-08
4.59136e-08
8.39081e-08
1.14405e-07
9.5371e-08
9.72691e-08
1.73626e-07
2.20437e-07
3.50277e-07
4.63346e-07
4.65484e-07
4.67012e-07
2.47433e-07
2.19365e-07
2.2091e-07
2.34998e-07
2.42397e-07
2.87954e-07
1.04168e-07
9.43342e-08
1.80613e-07
1.8258e-07
1.42675e-07
1.63045e-07
2.52476e-07
2.83586e-07
2.06291e-07
2.20495e-07
2.68979e-07
2.50794e-07
3.67953e-07
3.46049e-07
2.35243e-07
6.72378e-08
6.91859e-08
4.58508e-08
4.84302e-08
2.22095e-08
2.05278e-08
9.77077e-09
9.15614e-09
1.70608e-08
2.09026e-08
1.91617e-08
1.94317e-08
3.04156e-08
4.37815e-08
5.96885e-08
8.10196e-08
1.07849e-07
1.44847e-07
1.99004e-07
2.75629e-07
3.90466e-07
4.53418e-07
4.56002e-07
4.57256e-07
4.57185e-07
4.57076e-07
4.32651e-07
3.74377e-07
3.34964e-07
3.04056e-07
2.78736e-07
2.58022e-07
2.42844e-07
2.30445e-07
2.20021e-07
2.11101e-07
2.04538e-07
1.98678e-07
1.93214e-07
1.88628e-07
1.84931e-07
1.82018e-07
1.79539e-07
1.76998e-07
1.74723e-07
1.72373e-07
1.70883e-07
1.69532e-07
1.67064e-07
1.65181e-07
1.6333e-07
1.61278e-07
1.5928e-07
1.57733e-07
1.56126e-07
1.54749e-07
1.53883e-07
1.5303e-07
1.52322e-07
1.51773e-07
1.51279e-07
1.50932e-07
1.50486e-07
1.49672e-07
1.48605e-07
1.47708e-07
1.47264e-07
1.46998e-07
1.46415e-07
1.45231e-07
1.43591e-07
1.43031e-07
1.44039e-07
1.44531e-07
1.43504e-07
1.41874e-07
1.41611e-07
1.42953e-07
1.43843e-07
1.42566e-07
1.41477e-07
1.42079e-07
1.4329e-07
1.41786e-07
1.49114e-07
1.10524e-07
1.97361e-07
5.99949e-08
6.102e-08
2.61273e-08
6.258e-08
2.35691e-09
3.32914e-09
2.62322e-09
7.88872e-09
4.5458e-09
6.56352e-09
5.24846e-09
5.19001e-09
4.9975e-09
5.54326e-09
5.19919e-09
4.12947e-09
4.34349e-09
5.50186e-09
7.31794e-09
1.17894e-08
2.50863e-08
5.85323e-08
6.84277e-08
6.97627e-08
7.15528e-08
7.32357e-08
7.51421e-08
7.8011e-08
8.10305e-08
8.33135e-08
8.44795e-08
8.48029e-08
8.46376e-08
8.42285e-08
7.10796e-08
6.03147e-08
5.07409e-08
4.07556e-08
3.11377e-08
2.69171e-08
2.77363e-08
3.10266e-08
3.32676e-08
2.78108e-08
2.10525e-08
1.75926e-08
1.75211e-08
1.80496e-08
1.65415e-08
1.49404e-08
1.42075e-08
1.36152e-08
1.37552e-08
1.48895e-08
1.48611e-08
1.37458e-08
1.38463e-08
1.53283e-08
1.74959e-08
1.94245e-08
1.86094e-08
1.66324e-08
1.50399e-08
1.48249e-08
1.62365e-08
1.62146e-08
1.63382e-08
1.51928e-08
1.3867e-08
1.63391e-08
1.97688e-08
2.08955e-08
2.83573e-08
4.06747e-08
4.33063e-08
3.30898e-08
2.59651e-08
1.65357e-08
1.92804e-08
2.37731e-08
3.22475e-08
3.37266e-08
4.3348e-08
5.29781e-08
5.47955e-08
5.48997e-08
5.5813e-08
5.73728e-08
5.85436e-08
5.84879e-08
5.64272e-08
5.27564e-08
4.84681e-08
4.46906e-08
4.25413e-08
4.31519e-08
1.75199e-08
9.3106e-09
6.28571e-09
5.20413e-09
6.4175e-09
6.67903e-09
6.15953e-09
7.68595e-09
1.01901e-08
1.22286e-08
1.15434e-08
1.18879e-08
7.32629e-09
5.01395e-09
4.42321e-09
3.99747e-09
3.70341e-09
3.48371e-09
3.32683e-09
5.0119e-09
4.42561e-09
8.41736e-09
1.49825e-08
4.25537e-08
1.48466e-08
1.06056e-08
9.95329e-09
1.11066e-08
1.51732e-08
2.16772e-08
7.91035e-09
5.48612e-09
9.66881e-09
1.55433e-08
1.73589e-08
1.52619e-08
1.44851e-08
1.20984e-08
1.82193e-08
2.09428e-08
2.66438e-08
2.69131e-08
2.52907e-08
2.15088e-08
1.94982e-08
2.09708e-08
2.23711e-08
2.42331e-08
2.59733e-08
2.64059e-08
2.70447e-08
2.8576e-08
3.07738e-08
3.3295e-08
3.59261e-08
3.89672e-08
4.29875e-08
4.79992e-08
5.36978e-08
6.05601e-08
6.96643e-08
8.19778e-08
9.79953e-08
1.20345e-07
1.44428e-07
1.49309e-07
1.32136e-07
1.11107e-07
9.38694e-08
7.90599e-08
6.66311e-08
5.72626e-08
5.06521e-08
4.49112e-08
3.97024e-08
3.55272e-08
3.23384e-08
2.95166e-08
2.7185e-08
2.50216e-08
2.3159e-08
2.16164e-08
2.0079e-08
1.87538e-08
1.77347e-08
1.68375e-08
1.59645e-08
1.50585e-08
1.42534e-08
1.36727e-08
1.32599e-08
1.28362e-08
1.23719e-08
1.20628e-08
1.18245e-08
1.15449e-08
1.13269e-08
1.11762e-08
1.11147e-08
1.1187e-08
1.13026e-08
1.13925e-08
1.14747e-08
1.15709e-08
1.17482e-08
1.20703e-08
1.24632e-08
1.28709e-08
1.32686e-08
1.37226e-08
1.42458e-08
1.47734e-08
1.53997e-08
1.61219e-08
1.68976e-08
1.77268e-08
1.84913e-08
1.92344e-08
2.01136e-08
2.1179e-08
2.22992e-08
2.34862e-08
2.46531e-08
2.58856e-08
2.72715e-08
2.87785e-08
3.03426e-08
3.20912e-08
3.40163e-08
3.5996e-08
3.83713e-08
4.11753e-08
4.38985e-08
4.66694e-08
4.96543e-08
5.28705e-08
5.70558e-08
6.22741e-08
6.81485e-08
7.32057e-08
7.87243e-08
8.68933e-08
9.70207e-08
1.06884e-07
1.1636e-07
1.28396e-07
1.4169e-07
1.61597e-07
1.94336e-07
2.28341e-07
2.60888e-07
2.93375e-07
3.35062e-07
4.18483e-07
5.55983e-07
6.02635e-07
6.03384e-07
7.31058e-07
8.32579e-07
7.47473e-07
5.47026e-07
4.15463e-07
3.66007e-07
3.44134e-07
3.32938e-07
3.19391e-07
2.89641e-07
2.52642e-07
2.2275e-07
2.08506e-07
2.01826e-07
1.9196e-07
1.79993e-07
1.70234e-07
1.60436e-07
1.50179e-07
1.41451e-07
1.35436e-07
1.31559e-07
1.26191e-07
1.17208e-07
1.08917e-07
1.04393e-07
1.01743e-07
9.81107e-08
9.31139e-08
8.78914e-08
8.39778e-08
8.11452e-08
7.74003e-08
7.31803e-08
6.99136e-08
6.75198e-08
6.52331e-08
6.28812e-08
6.00327e-08
5.67144e-08
5.4155e-08
5.23155e-08
5.06182e-08
4.90382e-08
4.7192e-08
4.49713e-08
4.29963e-08
4.15719e-08
4.04342e-08
3.93041e-08
3.79924e-08
3.65328e-08
3.53844e-08
3.46234e-08
3.3928e-08
3.29641e-08
3.20239e-08
3.15038e-08
3.11515e-08
3.07178e-08
3.02793e-08
2.99674e-08
2.98195e-08
2.98445e-08
2.9957e-08
3.00314e-08
3.0143e-08
3.04811e-08
3.10223e-08
3.16593e-08
3.2328e-08
3.29942e-08
3.37652e-08
3.47609e-08
3.59793e-08
3.73213e-08
3.86156e-08
3.99622e-08
4.14468e-08
4.31072e-08
4.49633e-08
4.68327e-08
4.87151e-08
5.08242e-08
5.3153e-08
5.56614e-08
5.83356e-08
6.11148e-08
6.40336e-08
6.73085e-08
7.1058e-08
7.51065e-08
7.94455e-08
8.40961e-08
8.9074e-08
9.45525e-08
1.00747e-07
1.0796e-07
1.1592e-07
1.2453e-07
1.34138e-07
1.45337e-07
1.58214e-07
1.72357e-07
1.88262e-07
2.07674e-07
2.31843e-07
2.60115e-07
2.91813e-07
3.29656e-07
3.78159e-07
4.41628e-07
5.23897e-07
6.21881e-07
7.38081e-07
8.85579e-07
1.05136e-06
1.16334e-06
1.14957e-06
1.04797e-06
9.15883e-07
7.9519e-07
7.02699e-07
6.32178e-07
5.74331e-07
5.24845e-07
4.81881e-07
4.50607e-07
4.2767e-07
4.08888e-07
3.90227e-07
3.71878e-07
3.5695e-07
3.47364e-07
3.37007e-07
3.27901e-07
3.22895e-07
3.18883e-07
3.14049e-07
3.06544e-07
3.03321e-07
3.01375e-07
2.99467e-07
2.93417e-07
2.90461e-07
2.87638e-07
2.86581e-07
2.83419e-07
2.84757e-07
2.80941e-07
2.80394e-07
2.7747e-07
2.80382e-07
2.7384e-07
2.78285e-07
2.76173e-07
2.80794e-07
2.98267e-07
3.04132e-07
3.06579e-07
2.92874e-07
3.00593e-07
2.69791e-07
2.66517e-07
3.65585e-07
4.08272e-07
3.13851e-07
2.85137e-07
1.49127e-07
1.35436e-07
1.61935e-07
1.50127e-07
1.26014e-07
1.32625e-07
4.83126e-08
4.33741e-08
8.92613e-08
1.21362e-07
1.20552e-07
1.0874e-07
1.28135e-07
1.13778e-07
1.86021e-07
3.00247e-07
4.29855e-07
2.15121e-07
2.02254e-07
4.22629e-07
1.83867e-07
1.87197e-07
1.79968e-07
2.13817e-07
8.63555e-08
8.33174e-08
1.81044e-07
2.07364e-07
1.61835e-07
1.66454e-07
1.50644e-07
1.4591e-07
1.50168e-07
1.75511e-07
2.00364e-07
2.90436e-07
3.2349e-07
2.95804e-07
2.5209e-07
6.90741e-08
7.25157e-08
4.22301e-08
4.19413e-08
1.99195e-08
1.82089e-08
8.9166e-09
8.33718e-09
1.52687e-08
1.76124e-08
1.92179e-08
1.95944e-08
2.97953e-08
3.1603e-08
4.04118e-08
5.05377e-08
6.2275e-08
7.56754e-08
9.24017e-08
1.12668e-07
1.38093e-07
1.71898e-07
2.10111e-07
2.52273e-07
3.01523e-07
3.45368e-07
3.56733e-07
3.60476e-07
3.53435e-07
3.29859e-07
3.16343e-07
2.98965e-07
2.77848e-07
2.59219e-07
2.48023e-07
2.37186e-07
2.26255e-07
2.17013e-07
2.09476e-07
2.03504e-07
1.98282e-07
1.93331e-07
1.88901e-07
1.84891e-07
1.80995e-07
1.74511e-07
1.70909e-07
1.68745e-07
1.67025e-07
1.65504e-07
1.64073e-07
1.62657e-07
1.61212e-07
1.59602e-07
1.57934e-07
1.56266e-07
1.54475e-07
1.53217e-07
1.54299e-07
1.53539e-07
1.52092e-07
1.50949e-07
1.50148e-07
1.4961e-07
1.49344e-07
1.49046e-07
1.48508e-07
1.47781e-07
1.46954e-07
1.46005e-07
1.44845e-07
1.43621e-07
1.4291e-07
1.43296e-07
1.4434e-07
1.44566e-07
1.43097e-07
1.41244e-07
1.41085e-07
1.43198e-07
1.44443e-07
1.42241e-07
1.39693e-07
1.40326e-07
1.42337e-07
1.39671e-07
1.35867e-07
1.45554e-07
1.11146e-07
1.98586e-07
5.92081e-08
6.06183e-08
2.56853e-08
6.16088e-08
2.33575e-09
3.33152e-09
2.59464e-09
7.51909e-09
4.29905e-09
5.94443e-09
4.84684e-09
4.76087e-09
4.4137e-09
4.4575e-09
4.05214e-09
3.54834e-09
4.07943e-09
5.91505e-09
9.12397e-09
1.58332e-08
2.91919e-08
3.14699e-08
4.83772e-08
7.69278e-08
7.63697e-08
7.65993e-08
7.73809e-08
7.8611e-08
8.01629e-08
8.18702e-08
7.90178e-08
5.67108e-08
4.24385e-08
3.36366e-08
2.77925e-08
2.3334e-08
1.98131e-08
1.71461e-08
1.50477e-08
1.35445e-08
1.3026e-08
1.32548e-08
1.28309e-08
1.13039e-08
9.90261e-09
9.37986e-09
1.00735e-08
1.11005e-08
1.11435e-08
9.56547e-09
8.12105e-09
7.74342e-09
8.33502e-09
9.95914e-09
1.11059e-08
1.05885e-08
9.70393e-09
9.5215e-09
1.04974e-08
1.26658e-08
1.41982e-08
1.3648e-08
1.27874e-08
1.31849e-08
1.36378e-08
1.16321e-08
1.02208e-08
9.13084e-09
8.55011e-09
9.41587e-09
9.98742e-09
1.11205e-08
1.42854e-08
2.06918e-08
2.36929e-08
2.12278e-08
1.62877e-08
1.23972e-08
9.75587e-09
1.2156e-08
1.55633e-08
2.44425e-08
3.58496e-08
4.64283e-08
4.39835e-08
5.70049e-08
5.90528e-08
5.85519e-08
5.83828e-08
5.79043e-08
5.67155e-08
5.47561e-08
5.2227e-08
4.91721e-08
4.64713e-08
4.47391e-08
4.45136e-08
4.67984e-08
4.53464e-08
1.68881e-08
1.00764e-08
6.22777e-09
4.39908e-09
5.2036e-09
6.47907e-09
6.94108e-09
7.08091e-09
6.62776e-09
6.65497e-09
5.25598e-09
3.94702e-09
3.29363e-09
2.48559e-09
2.12307e-09
2.55872e-09
2.58451e-09
2.62103e-09
2.70444e-09
4.72823e-09
4.2415e-09
7.8884e-09
1.21277e-08
2.97633e-08
1.74468e-08
9.99136e-09
8.9004e-09
1.05845e-08
1.33634e-08
1.87795e-08
6.63631e-09
4.75869e-09
8.45958e-09
1.36807e-08
1.58027e-08
1.46287e-08
1.45384e-08
1.19447e-08
1.76951e-08
2.26752e-08
2.25821e-08
2.45296e-08
2.47594e-08
2.11705e-08
1.97497e-08
2.1827e-08
2.38744e-08
2.59527e-08
2.76793e-08
2.85816e-08
3.01054e-08
3.24278e-08
3.55778e-08
3.92749e-08
4.33219e-08
4.77153e-08
5.2948e-08
5.968e-08
6.77226e-08
7.65218e-08
8.78614e-08
9.94936e-08
1.0071e-07
9.19474e-08
8.33061e-08
7.48051e-08
6.50448e-08
5.59313e-08
4.96393e-08
4.49738e-08
3.99887e-08
3.52128e-08
3.18257e-08
2.93046e-08
2.68364e-08
2.47044e-08
2.29042e-08
2.13126e-08
1.98959e-08
1.85599e-08
1.74335e-08
1.65982e-08
1.5838e-08
1.4971e-08
1.41777e-08
1.36107e-08
1.32042e-08
1.28553e-08
1.24257e-08
1.20298e-08
1.17606e-08
1.15383e-08
1.13703e-08
1.12698e-08
1.1167e-08
1.10775e-08
1.10838e-08
1.11628e-08
1.12894e-08
1.14552e-08
1.15863e-08
1.1698e-08
1.19154e-08
1.22823e-08
1.2722e-08
1.31284e-08
1.34527e-08
1.38423e-08
1.43683e-08
1.50621e-08
1.58262e-08
1.65361e-08
1.72326e-08
1.79118e-08
1.86886e-08
1.9738e-08
2.08392e-08
2.17886e-08
2.28728e-08
2.40613e-08
2.52515e-08
2.66528e-08
2.83122e-08
2.99638e-08
3.16312e-08
3.3238e-08
3.50206e-08
3.72984e-08
4.02647e-08
4.34512e-08
4.63338e-08
4.89029e-08
5.17249e-08
5.54015e-08
6.0223e-08
6.6376e-08
7.22724e-08
7.72863e-08
8.40707e-08
9.33872e-08
1.03208e-07
1.12494e-07
1.24305e-07
1.38197e-07
1.57156e-07
1.83894e-07
2.08688e-07
2.32222e-07
2.61315e-07
2.98172e-07
3.54998e-07
4.28362e-07
4.44279e-07
4.66622e-07
5.75321e-07
6.4927e-07
5.5488e-07
4.27584e-07
3.61725e-07
3.3928e-07
3.31602e-07
3.26432e-07
3.00408e-07
2.61707e-07
2.32625e-07
2.17762e-07
2.09487e-07
2.0209e-07
1.89619e-07
1.74366e-07
1.64225e-07
1.55838e-07
1.46615e-07
1.39631e-07
1.35206e-07
1.31553e-07
1.24648e-07
1.14716e-07
1.06945e-07
1.0259e-07
9.94242e-08
9.61905e-08
9.21193e-08
8.74923e-08
8.35924e-08
7.99508e-08
7.53947e-08
7.11832e-08
6.89452e-08
6.75172e-08
6.50002e-08
6.18708e-08
5.86898e-08
5.57206e-08
5.35547e-08
5.19893e-08
5.03526e-08
4.84201e-08
4.64983e-08
4.4552e-08
4.27069e-08
4.14048e-08
4.01791e-08
3.88676e-08
3.76832e-08
3.65647e-08
3.56269e-08
3.47926e-08
3.38675e-08
3.29647e-08
3.22898e-08
3.18832e-08
3.14703e-08
3.0994e-08
3.0586e-08
3.03757e-08
3.03202e-08
3.0274e-08
3.02967e-08
3.03729e-08
3.05315e-08
3.08829e-08
3.13003e-08
3.17309e-08
3.23313e-08
3.30013e-08
3.37043e-08
3.45652e-08
3.55869e-08
3.6729e-08
3.80011e-08
3.94134e-08
4.08148e-08
4.22929e-08
4.40268e-08
4.59131e-08
4.78394e-08
4.98937e-08
5.2135e-08
5.45309e-08
5.71376e-08
5.99229e-08
6.287e-08
6.6154e-08
6.98093e-08
7.36697e-08
7.79065e-08
8.24765e-08
8.7282e-08
9.26949e-08
9.87672e-08
1.05522e-07
1.13069e-07
1.21587e-07
1.31267e-07
1.4221e-07
1.54111e-07
1.67022e-07
1.82009e-07
2.00321e-07
2.22588e-07
2.48083e-07
2.765e-07
3.09857e-07
3.49765e-07
3.99341e-07
4.6417e-07
5.3798e-07
6.12494e-07
6.88773e-07
7.6324e-07
8.26249e-07
8.45155e-07
8.06576e-07
7.40172e-07
6.75802e-07
6.22497e-07
5.74035e-07
5.32401e-07
4.92748e-07
4.58619e-07
4.33886e-07
4.14499e-07
3.95667e-07
3.78724e-07
3.62211e-07
3.50075e-07
3.41296e-07
3.32079e-07
3.24389e-07
3.1908e-07
3.15047e-07
3.09549e-07
3.03892e-07
2.99942e-07
2.98945e-07
2.95591e-07
2.92897e-07
2.87948e-07
2.86614e-07
2.82634e-07
2.83753e-07
2.82445e-07
2.8457e-07
2.75387e-07
2.75872e-07
2.68515e-07
2.72715e-07
2.7866e-07
2.93853e-07
2.60623e-07
2.71891e-07
2.30306e-07
2.44608e-07
3.25316e-07
4.01015e-07
5.56062e-07
3.27058e-07
2.87353e-07
1.48886e-07
1.34235e-07
1.57951e-07
1.42767e-07
1.18195e-07
1.25313e-07
4.49133e-08
3.97769e-08
8.28906e-08
1.11007e-07
1.22145e-07
1.03488e-07
1.22849e-07
1.11686e-07
2.18091e-07
2.27187e-07
2.58764e-07
1.47438e-07
1.50798e-07
1.33935e-07
1.43187e-07
1.53519e-07
1.5684e-07
1.05532e-07
7.16562e-08
6.64431e-08
1.45574e-07
1.63229e-07
1.55767e-07
1.51792e-07
1.56091e-07
1.42644e-07
1.58979e-07
1.67201e-07
1.74991e-07
2.1877e-07
3.08627e-07
2.69627e-07
5.94575e-08
7.1097e-08
1.93257e-07
3.95854e-08
3.84578e-08
1.83711e-08
1.6542e-08
8.36978e-09
7.83127e-09
1.4406e-08
1.66718e-08
1.91969e-08
1.93865e-08
2.77949e-08
3.2422e-08
6.31165e-08
9.40612e-08
6.60542e-08
5.76202e-08
6.2795e-08
7.13186e-08
8.22326e-08
9.58473e-08
1.11884e-07
1.31119e-07
1.54401e-07
1.7722e-07
2.01981e-07
2.30052e-07
2.5028e-07
2.62946e-07
2.71162e-07
2.72298e-07
2.67541e-07
2.62334e-07
2.53474e-07
2.44166e-07
2.33754e-07
2.24422e-07
2.17284e-07
2.10909e-07
2.05161e-07
2.00457e-07
1.96998e-07
1.93731e-07
1.89769e-07
1.85878e-07
1.81846e-07
1.77897e-07
1.72931e-07
1.69763e-07
1.67549e-07
1.66078e-07
1.64493e-07
1.62923e-07
1.61598e-07
1.59802e-07
1.58077e-07
1.56566e-07
1.55284e-07
1.54012e-07
1.53204e-07
1.53342e-07
1.52196e-07
1.50873e-07
1.49777e-07
1.49133e-07
1.48946e-07
1.48909e-07
1.48559e-07
1.47768e-07
1.46726e-07
1.45681e-07
1.44709e-07
1.43775e-07
1.43068e-07
1.43037e-07
1.43953e-07
1.44653e-07
1.4377e-07
1.42026e-07
1.41358e-07
1.42837e-07
1.4451e-07
1.4334e-07
1.40337e-07
1.39666e-07
1.40885e-07
1.40506e-07
1.37623e-07
1.37192e-07
1.49367e-07
1.12544e-07
2.004e-07
5.93622e-08
6.06151e-08
2.56033e-08
6.19587e-08
2.31045e-09
3.33478e-09
2.55697e-09
7.2308e-09
4.17444e-09
5.62332e-09
4.67912e-09
4.64959e-09
4.2621e-09
4.04189e-09
3.40654e-09
3.00143e-09
3.43361e-09
4.61934e-09
6.33063e-09
8.77248e-09
9.34985e-09
1.02984e-08
1.5263e-08
2.21815e-08
2.7929e-08
3.04779e-08
3.08535e-08
2.86526e-08
2.47534e-08
2.13154e-08
1.83001e-08
1.59956e-08
1.42789e-08
1.25139e-08
1.07354e-08
9.40633e-09
8.68507e-09
8.46255e-09
8.89203e-09
8.75403e-09
7.64301e-09
6.95505e-09
6.66804e-09
6.46136e-09
6.44532e-09
6.72444e-09
7.29745e-09
8.53155e-09
9.33063e-09
8.23975e-09
7.02051e-09
6.7613e-09
7.51837e-09
9.76471e-09
1.22142e-08
1.05041e-08
8.09044e-09
7.53409e-09
8.35808e-09
1.06261e-08
1.40333e-08
1.44734e-08
1.35083e-08
1.38271e-08
1.3113e-08
1.05715e-08
8.99757e-09
8.57967e-09
8.65652e-09
7.94168e-09
7.04801e-09
7.10408e-09
8.38678e-09
1.1255e-08
1.45386e-08
1.52191e-08
1.28566e-08
1.03082e-08
7.70078e-09
7.47804e-09
1.01222e-08
1.27119e-08
1.91377e-08
2.2191e-08
3.34453e-08
4.38401e-08
8.09148e-08
7.29143e-08
6.78958e-08
6.41944e-08
6.11717e-08
5.8439e-08
5.61272e-08
5.40699e-08
5.21029e-08
5.05811e-08
4.96244e-08
4.99587e-08
5.22102e-08
3.4358e-08
4.67991e-08
3.66418e-08
1.54256e-08
1.11868e-08
7.88331e-09
5.28901e-09
6.78336e-09
8.40527e-09
8.04474e-09
6.33007e-09
7.47619e-09
5.03933e-09
3.71164e-09
2.24823e-09
2.2287e-09
1.84827e-09
1.95151e-09
2.71689e-09
3.11164e-09
3.14017e-09
2.69058e-09
4.4564e-09
3.98908e-09
7.3854e-09
1.09251e-08
2.66688e-08
2.0335e-08
1.0258e-08
8.8329e-09
1.0506e-08
1.24628e-08
1.72249e-08
5.94127e-09
4.29671e-09
7.66017e-09
1.25386e-08
1.58114e-08
1.32574e-08
2.40592e-08
1.3776e-08
1.10646e-08
1.63248e-08
2.00856e-08
2.52623e-08
2.73955e-08
2.34151e-08
2.19881e-08
2.4203e-08
2.68813e-08
2.98796e-08
3.28289e-08
3.40675e-08
3.56372e-08
3.89044e-08
4.3714e-08
4.87143e-08
5.33572e-08
5.7741e-08
6.35431e-08
7.07257e-08
7.67758e-08
7.65107e-08
7.15979e-08
6.67883e-08
6.17537e-08
5.55186e-08
4.93358e-08
4.46887e-08
4.06187e-08
3.63401e-08
3.24268e-08
2.95583e-08
2.73783e-08
2.53157e-08
2.32883e-08
2.16008e-08
2.02047e-08
1.8909e-08
1.78232e-08
1.68826e-08
1.60437e-08
1.52793e-08
1.45075e-08
1.3901e-08
1.34991e-08
1.31673e-08
1.28146e-08
1.23998e-08
1.20683e-08
1.17952e-08
1.16041e-08
1.15668e-08
1.15052e-08
1.1428e-08
1.13497e-08
1.12406e-08
1.12591e-08
1.14038e-08
1.15929e-08
1.17682e-08
1.18728e-08
1.19946e-08
1.22569e-08
1.26439e-08
1.3076e-08
1.33911e-08
1.36989e-08
1.4171e-08
1.48436e-08
1.55559e-08
1.61926e-08
1.68004e-08
1.74556e-08
1.82922e-08
1.9399e-08
2.05084e-08
2.14031e-08
2.2298e-08
2.34092e-08
2.46575e-08
2.61388e-08
2.78421e-08
2.94638e-08
3.0941e-08
3.2445e-08
3.42965e-08
3.64851e-08
3.92804e-08
4.23091e-08
4.52375e-08
4.82495e-08
5.11995e-08
5.43033e-08
5.83174e-08
6.34816e-08
6.99793e-08
7.61721e-08
8.17072e-08
8.90779e-08
9.9749e-08
1.10435e-07
1.19669e-07
1.31344e-07
1.47491e-07
1.67772e-07
1.9008e-07
2.12817e-07
2.37674e-07
2.66712e-07
3.04044e-07
3.39559e-07
3.55323e-07
3.94341e-07
4.71788e-07