/*--------------------------------*- C++ -*----------------------------------*\
| =========                 |                                                 |
| \\      /  F ield         | OpenFOAM: The Open Source CFD Toolbox           |
|  \\    /   O peration     | Version:  v2006                                 |
|   \\  /    A nd           | Website:  www.openfoam.com                      |
|    \\/     M anipulation  |                                                 |
\*---------------------------------------------------------------------------*/
FoamFile
{
    version     2.0;
    format      ascii;
    class       surfaceScalarField;
    location    "5.2";
    object      phi;
}
// * * * * * * * * * * * * * * * * * * * * * * * * * * * * * * * * * * * * * //

dimensions      [0 3 -1 0 0 0 0];
oriented        oriented;


internalField   nonuniform List<scalar> 
65390
(
-2.06876e-05
-1.52003e-06
-1.91903e-05
-1.49642e-06
-1.77939e-05
-1.39569e-06
-1.65887e-05
-1.20456e-06
-1.53755e-05
-1.2127e-06
-1.42214e-05
-1.15367e-06
-1.3473e-05
-7.48053e-07
-1.32115e-05
-2.61296e-07
-1.33228e-05
1.11591e-07
-1.35758e-05
2.53155e-07
-1.35517e-05
-2.40376e-08
-1.21541e-05
-1.39746e-06
-7.48861e-06
-4.66537e-06
-4.1391e-08
-7.44714e-06
8.82092e-06
-8.86224e-06
1.86417e-05
-9.82073e-06
2.92679e-05
-1.06261e-05
3.99472e-05
-1.06793e-05
4.96539e-05
-9.70664e-06
5.76139e-05
-7.95999e-06
6.29539e-05
-5.33994e-06
6.45572e-05
-1.60328e-06
6.14094e-05
3.14789e-06
5.48305e-05
6.57897e-06
4.76538e-05
7.1767e-06
4.17564e-05
5.89741e-06
3.80571e-05
3.69936e-06
3.59252e-05
2.1319e-06
3.46488e-05
1.27646e-06
3.39944e-05
6.54466e-07
3.39325e-05
6.19213e-08
3.44667e-05
-5.34249e-07
3.53941e-05
-9.2739e-07
3.64647e-05
-1.07056e-06
3.73811e-05
-9.16398e-07
3.80602e-05
-6.79087e-07
3.87127e-05
-6.52518e-07
3.95082e-05
-7.95594e-07
4.04002e-05
-8.91968e-07
4.11674e-05
-7.67295e-07
4.1765e-05
-5.97628e-07
4.24082e-05
-6.43171e-07
4.34084e-05
-1.00026e-06
4.47684e-05
-1.35997e-06
4.6137e-05
-1.36868e-06
4.71967e-05
-1.05975e-06
4.78746e-05
-6.77967e-07
4.8426e-05
-5.51448e-07
4.919e-05
-7.641e-07
5.03022e-05
-1.11216e-06
5.15717e-05
-1.2696e-06
5.26811e-05
-1.10941e-06
5.35078e-05
-8.26786e-07
5.42521e-05
-7.44382e-07
5.5101e-05
-8.48939e-07
5.60567e-05
-9.55772e-07
5.70354e-05
-9.78778e-07
5.80059e-05
-9.70606e-07
5.89599e-05
-9.54095e-07
6.0038e-05
-1.07816e-06
6.12824e-05
-1.2444e-06
6.23234e-05
-1.04112e-06
6.28886e-05
-5.65199e-07
6.3121e-05
-2.32522e-07
6.32882e-05
-1.67239e-07
6.35331e-05
-2.4484e-07
6.37656e-05
-2.32512e-07
6.37938e-05
-2.82132e-08
6.36135e-05
1.80308e-07
6.34447e-05
1.68852e-07
6.34299e-05
1.48337e-08
6.34334e-05
-3.47276e-09
6.3265e-05
1.68462e-07
6.28275e-05
4.37587e-07
6.15186e-05
1.30898e-06
5.89771e-05
2.54157e-06
5.45471e-05
4.43003e-06
4.72295e-05
7.31767e-06
4.13617e-05
5.86784e-06
3.94303e-05
1.93143e-06
3.83805e-05
1.04986e-06
3.84937e-05
-1.13244e-07
3.76455e-05
8.48202e-07
3.6746e-05
8.9948e-07
3.58725e-05
8.73568e-07
3.39252e-05
1.94728e-06
3.20855e-05
1.83969e-06
3.07242e-05
1.36131e-06
3.01853e-05
5.38939e-07
3.00218e-05
1.63426e-07
3.00803e-05
-5.84689e-08
3.0173e-05
-9.27282e-08
3.00178e-05
1.55243e-07
2.97514e-05
2.6638e-07
2.91576e-05
5.93803e-07
2.83786e-05
7.79114e-07
2.68624e-05
1.51614e-06
2.49493e-05
1.91323e-06
2.12942e-05
3.65505e-06
1.63822e-05
4.91205e-06
1.20046e-05
4.37761e-06
9.4507e-06
2.55398e-06
9.01114e-06
4.39585e-07
8.74372e-06
2.67433e-07
9.37692e-06
-6.33186e-07
1.03872e-05
-1.0103e-06
1.08533e-05
-4.66021e-07
1.07147e-05
1.38541e-07
1.05329e-05
1.81808e-07
1.07463e-05
-2.13374e-07
1.09376e-05
-1.91342e-07
1.13177e-05
-3.8016e-07
1.17442e-05
-4.26475e-07
1.20586e-05
-3.1438e-07
1.21019e-05
-4.33138e-08
1.20046e-05
9.73692e-08
1.12103e-05
7.94265e-07
1.01309e-05
1.07948e-06
9.53732e-06
5.93641e-07
9.58389e-06
-4.65156e-08
1.00297e-05
-4.45761e-07
1.03222e-05
-2.92465e-07
1.0879e-05
-5.56822e-07
1.15232e-05
-6.44124e-07
1.19447e-05
-4.21553e-07
1.23383e-05
-3.93616e-07
1.27295e-05
-3.91294e-07
1.30839e-05
-3.54451e-07
1.34858e-05
-4.01957e-07
1.39118e-05
-4.26077e-07
1.42983e-05
-3.86606e-07
1.46769e-05
-3.78703e-07
1.50429e-05
-3.66063e-07
1.54038e-05
-3.6091e-07
1.57556e-05
-3.51871e-07
1.61117e-05
-3.56136e-07
1.64746e-05
-3.62915e-07
1.68304e-05
-3.55783e-07
1.71797e-05
-3.49222e-07
1.75175e-05
-3.37681e-07
1.78407e-05
-3.23197e-07
1.81486e-05
-3.07762e-07
1.84428e-05
-2.94082e-07
1.87221e-05
-2.79178e-07
1.89804e-05
-2.5811e-07
1.92174e-05
-2.36927e-07
1.94373e-05
-2.19702e-07
1.96421e-05
-2.04677e-07
1.98292e-05
-1.86872e-07
1.99945e-05
-1.6517e-07
2.01345e-05
-1.39812e-07
2.02535e-05
-1.18808e-07
2.03562e-05
-1.02607e-07
2.04415e-05
-8.51704e-08
2.05051e-05
-6.35319e-08
2.0546e-05
-4.0762e-08
2.05643e-05
-1.82689e-08
2.05624e-05
1.96659e-09
2.05399e-05
2.24414e-08
2.04964e-05
4.34156e-08
2.04315e-05
6.4883e-08
2.03467e-05
8.47305e-08
2.02412e-05
1.05424e-07
2.0111e-05
1.30037e-07
1.99566e-05
1.54213e-07
1.97828e-05
1.73734e-07
1.95884e-05
1.94263e-07
1.93672e-05
2.21028e-07
1.91188e-05
2.48244e-07
1.88492e-05
2.69547e-07
1.85585e-05
2.90598e-07
1.82416e-05
3.16732e-07
1.78941e-05
3.47414e-07
1.75165e-05
3.77551e-07
1.71161e-05
4.00383e-07
1.66924e-05
4.23672e-07
1.62391e-05
4.53272e-07
1.5753e-05
4.86095e-07
1.5236e-05
5.16978e-07
1.46929e-05
5.43148e-07
1.41239e-05
5.68944e-07
1.35241e-05
5.99828e-07
1.28925e-05
6.31631e-07
1.22428e-05
6.49724e-07
1.15793e-05
6.63487e-07
1.08923e-05
6.86993e-07
1.01815e-05
7.10866e-07
9.45401e-06
7.27439e-07
8.71935e-06
7.34662e-07
7.9816e-06
7.37732e-07
7.24349e-06
7.3808e-07
6.50524e-06
7.38217e-07
5.7637e-06
7.41507e-07
5.02795e-06
7.35714e-07
4.30341e-06
7.2451e-07
3.5945e-06
7.08876e-07
2.9076e-06
6.86868e-07
2.24329e-06
6.64283e-07
1.59868e-06
6.4459e-07
9.69825e-07
6.28845e-07
3.60103e-07
6.09716e-07
-2.23936e-07
5.84038e-07
-7.77972e-07
5.54038e-07
-1.303e-06
5.25034e-07
-1.80584e-06
5.02845e-07
-2.29032e-06
4.84488e-07
-2.75577e-06
4.65456e-07
-3.20089e-06
4.45144e-07
-3.6234e-06
4.22537e-07
-4.02466e-06
4.013e-07
-4.4104e-06
3.8578e-07
-4.78323e-06
3.72867e-07
-5.13783e-06
3.54624e-07
-5.46982e-06
3.32007e-07
-5.78277e-06
3.12961e-07
-6.08105e-06
2.98281e-07
-6.36883e-06
2.87785e-07
-6.6454e-06
2.76569e-07
-6.90667e-06
2.61266e-07
-7.15021e-06
2.43533e-07
-7.37608e-06
2.25854e-07
-7.58855e-06
2.12434e-07
-7.79046e-06
2.0188e-07
-7.98382e-06
1.9333e-07
-8.1661e-06
1.82252e-07
-8.33527e-06
1.69139e-07
-8.4915e-06
1.56216e-07
-8.63525e-06
1.43744e-07
-8.76781e-06
1.32555e-07
-8.892e-06
1.24188e-07
-9.00977e-06
1.1776e-07
-9.11847e-06
1.08693e-07
-9.21631e-06
9.78343e-08
-9.30482e-06
8.85073e-08
-9.38414e-06
7.9312e-08
-9.45531e-06
7.11563e-08
-9.52013e-06
6.48201e-08
-9.57955e-06
5.94297e-08
-9.632e-06
5.24518e-08
-9.67702e-06
4.5034e-08
-9.71722e-06
4.02074e-08
-9.75225e-06
3.50263e-08
-9.78131e-06
2.90605e-08
-9.80354e-06
2.22238e-08
-9.82026e-06
1.67032e-08
-9.83307e-06
1.27974e-08
-9.84442e-06
1.13264e-08
-9.85324e-06
8.80387e-09
-9.85509e-06
1.82272e-09
-9.85145e-06
-3.65939e-09
-9.84506e-06
-6.40943e-09
-9.83625e-06
-8.82369e-09
-9.82566e-06
-1.06086e-08
-9.81241e-06
-1.32697e-08
-9.79552e-06
-1.6905e-08
-9.7752e-06
-2.03311e-08
-9.75205e-06
-2.31691e-08
-9.72614e-06
-2.59293e-08
-9.69826e-06
-2.78882e-08
-9.66875e-06
-2.95279e-08
-9.63636e-06
-3.24071e-08
-9.60031e-06
-3.60713e-08
-9.56041e-06
-3.99108e-08
-9.51795e-06
-4.24723e-08
-9.47445e-06
-4.35129e-08
-9.43013e-06
-4.43255e-08
-9.3839e-06
-4.62413e-08
-9.33341e-06
-5.0507e-08
-9.27734e-06
-5.60809e-08
-9.21778e-06
-5.95745e-08
-9.15576e-06
-6.20357e-08
-9.09176e-06
-6.40078e-08
-9.02636e-06
-6.54177e-08
-8.95778e-06
-6.86061e-08
-8.88435e-06
-7.34466e-08
-8.80673e-06
-7.76332e-08
-8.72562e-06
-8.11323e-08
-8.64062e-06
-8.50196e-08
-8.55127e-06
-8.93645e-08
-8.45716e-06
-9.41293e-08
-8.35913e-06
-9.80436e-08
-8.2589e-06
-1.00248e-07
-8.15503e-06
-1.03891e-07
-8.04475e-06
-1.10294e-07
-7.92803e-06
-1.16743e-07
-7.80578e-06
-1.22263e-07
-7.6785e-06
-1.27307e-07
-7.54636e-06
-1.32158e-07
-7.40985e-06
-1.36535e-07
-7.26848e-06
-1.41387e-07
-7.12012e-06
-1.48367e-07
-6.96449e-06
-1.55645e-07
-6.80177e-06
-1.62726e-07
-6.63239e-06
-1.69393e-07
-6.45778e-06
-1.74618e-07
-6.27806e-06
-1.79726e-07
-6.09021e-06
-1.87863e-07
-5.89518e-06
-1.95045e-07
-5.69297e-06
-2.02213e-07
-5.48285e-06
-2.10134e-07
-5.26679e-06
-2.16061e-07
-5.04485e-06
-2.21937e-07
-4.81564e-06
-2.29215e-07
-4.5794e-06
-2.36245e-07
-4.33638e-06
-2.43033e-07
-4.08866e-06
-2.47727e-07
-3.83585e-06
-2.52834e-07
-3.5777e-06
-2.58157e-07
-3.31455e-06
-2.63165e-07
-3.04741e-06
-2.67146e-07
-2.77885e-06
-2.68571e-07
-2.50976e-06
-2.69091e-07
-2.24015e-06
-2.69622e-07
-1.96962e-06
-2.70538e-07
-1.6995e-06
-2.70127e-07
-1.43237e-06
-2.67144e-07
-1.16924e-06
-2.63136e-07
-9.10192e-07
-2.59056e-07
-6.56065e-07
-2.54136e-07
-4.07849e-07
-2.48225e-07
-1.67189e-07
-2.4067e-07
6.5185e-08
-2.32386e-07
2.89931e-07
-2.2476e-07
5.07326e-07
-2.17409e-07
7.16981e-07
-2.09668e-07
9.18393e-07
-2.01425e-07
1.11206e-06
-1.93674e-07
1.29895e-06
-1.86904e-07
1.47929e-06
-1.80346e-07
1.65265e-06
-1.73378e-07
1.81865e-06
-1.6601e-07
1.97718e-06
-1.5854e-07
2.12905e-06
-1.51878e-07
2.27488e-06
-1.4584e-07
2.4148e-06
-1.3993e-07
2.54861e-06
-1.33813e-07
2.67611e-06
-1.27515e-07
2.79727e-06
-1.21167e-07
2.9122e-06
-1.14935e-07
3.02142e-06
-1.0922e-07
3.12517e-06
-1.0376e-07
3.22349e-06
-9.83207e-08
3.31628e-06
-9.27982e-08
3.40322e-06
-8.69548e-08
3.48469e-06
-8.14821e-08
3.56129e-06
-7.66084e-08
3.63323e-06
-7.19478e-08
3.70041e-06
-6.71906e-08
3.76256e-06
-6.21636e-08
3.81984e-06
-5.7288e-08
3.87262e-06
-5.27915e-08
3.92138e-06
-4.87666e-08
3.96605e-06
-4.46802e-08
4.00639e-06
-4.03503e-08
4.04269e-06
-3.63112e-08
4.07537e-06
-3.26791e-08
4.10457e-06
-2.91998e-08
4.13023e-06
-2.5654e-08
4.15245e-06
-2.2221e-08
4.17153e-06
-1.90904e-08
4.18758e-06
-1.6059e-08
4.20068e-06
-1.31122e-08
4.21096e-06
-1.02948e-08
4.21841e-06
-7.45818e-09
4.22328e-06
-4.85333e-09
4.22573e-06
-2.43384e-09
4.226e-06
-2.41124e-10
4.22414e-06
1.88553e-09
4.22017e-06
3.98687e-09
4.21415e-06
6.02801e-09
4.20621e-06
7.94154e-09
4.19662e-06
9.57857e-09
4.18558e-06
1.10427e-08
4.17306e-06
1.25188e-08
4.15906e-06
1.40016e-08
4.14372e-06
1.53481e-08
4.12714e-06
1.65866e-08
4.1094e-06
1.77509e-08
4.09046e-06
1.89443e-08
4.07045e-06
2.00113e-08
4.04963e-06
2.08249e-08
4.02811e-06
2.15143e-08
4.00595e-06
2.21656e-08
3.9831e-06
2.28613e-08
3.95956e-06
2.35462e-08
3.93538e-06
2.41907e-08
3.91062e-06
2.47597e-08
3.88547e-06
2.51572e-08
3.86006e-06
2.5408e-08
3.83428e-06
2.57818e-08
3.8079e-06
2.63789e-08
3.78127e-06
2.66199e-08
3.7546e-06
2.66719e-08
3.72762e-06
2.69735e-08
3.70033e-06
2.72886e-08
3.67293e-06
2.7409e-08
3.6453e-06
2.76279e-08
3.61732e-06
2.79795e-08
3.58912e-06
2.82074e-08
3.56086e-06
2.82598e-08
3.53268e-06
2.81824e-08
3.50456e-06
2.81178e-08
3.4764e-06
2.81621e-08
3.44812e-06
2.82802e-08
3.42012e-06
2.80069e-08
3.39194e-06
2.81765e-08
3.36456e-06
2.73865e-08
3.33738e-06
2.7171e-08
3.31087e-06
2.6512e-08
3.28441e-06
2.64546e-08
3.25812e-06
2.62924e-08
3.23192e-06
2.61883e-08
3.20534e-06
2.65835e-08
3.17994e-06
2.54006e-08
3.15456e-06
2.53709e-08
3.12768e-06
2.68788e-08
3.10171e-06
2.59766e-08
3.07261e-06
2.90956e-08
3.04169e-06
3.09236e-08
3.01809e-06
2.35982e-08
2.99305e-06
2.50444e-08
2.9648e-06
2.82508e-08
2.94351e-06
2.12908e-08
2.89555e-06
4.79632e-08
2.84035e-06
5.51964e-08
2.82836e-06
1.19962e-08
2.79582e-06
3.25373e-08
2.79236e-06
3.45752e-09
2.82596e-06
-3.36009e-08
2.94955e-06
-1.23585e-07
3.09552e-06
-1.4597e-07
3.16352e-06
-6.80029e-08
3.21404e-06
-5.05132e-08
3.23501e-06
-2.09735e-08
3.2454e-06
-1.03792e-08
3.24494e-06
4.57921e-10
3.24247e-06
2.47881e-09
3.23573e-06
6.73823e-09
3.22645e-06
9.28758e-09
3.20994e-06
1.65124e-08
3.19546e-06
1.44847e-08
3.1616e-06
3.38659e-08
3.12264e-06
3.89668e-08
3.10946e-06
1.31749e-08
3.08171e-06
2.77563e-08
3.06776e-06
1.39557e-08
3.07446e-06
-6.70866e-09
3.12522e-06
-5.07516e-08
3.18243e-06
-5.72143e-08
3.19463e-06
-1.22002e-08
3.1998e-06
-5.17209e-09
3.1917e-06
8.10118e-09
3.17673e-06
1.49692e-08
3.16074e-06
1.59896e-08
3.13736e-06
2.33848e-08
3.11276e-06
2.45957e-08
3.0766e-06
3.61624e-08
3.03798e-06
3.86119e-08
3.00864e-06
2.93418e-08
2.97125e-06
3.73939e-08
2.93716e-06
3.40867e-08
2.9071e-06
3.0061e-08
2.78776e-06
1.19341e-07
2.67986e-06
1.07896e-07
2.65869e-06
2.11724e-08
2.56284e-06
9.5849e-08
2.66673e-06
-1.03891e-07
2.83162e-06
-1.64895e-07
3.48802e-06
-6.56397e-07
4.30092e-06
-8.12902e-07
4.81482e-06
-5.13904e-07
5.15497e-06
-3.40153e-07
5.39078e-06
-2.35811e-07
5.55542e-06
-1.64638e-07
5.67236e-06
-1.16943e-07
5.75638e-06
-8.40244e-08
5.81503e-06
-5.86483e-08
5.85627e-06
-4.12422e-08
5.88408e-06
-2.78125e-08
5.90172e-06
-1.76408e-08
5.90963e-06
-7.91231e-09
5.91089e-06
-1.26761e-09
5.90708e-06
3.81535e-09
5.89721e-06
9.8679e-09
5.88325e-06
1.39581e-08
5.8661e-06
1.71511e-08
5.84432e-06
2.17781e-08
5.82008e-06
2.42328e-08
5.7937e-06
2.63822e-08
5.76553e-06
2.81619e-08
5.73367e-06
3.18602e-08
5.70005e-06
3.3624e-08
5.66487e-06
3.5177e-08
5.62825e-06
3.66177e-08
5.59043e-06
3.78128e-08
5.55122e-06
3.92122e-08
5.51079e-06
4.04298e-08
5.46932e-06
4.14659e-08
5.42674e-06
4.25809e-08
5.38331e-06
4.34227e-08
5.33901e-06
4.43069e-08
5.29589e-06
4.31187e-08
5.2522e-06
4.36864e-08
5.20774e-06
4.44568e-08
5.16284e-06
4.48987e-08
5.11712e-06
4.57166e-08
5.07055e-06
4.65711e-08
5.02361e-06
4.69395e-08
4.97607e-06
4.75357e-08
4.92786e-06
4.82039e-08
4.87901e-06
4.88499e-08
4.82956e-06
4.94483e-08
4.77967e-06
4.98904e-08
4.72962e-06
5.00541e-08
4.67737e-06
5.22406e-08
4.62492e-06
5.24554e-08
4.57251e-06
5.24013e-08
4.52004e-06
5.24765e-08
4.46752e-06
5.25145e-08
4.41516e-06
5.23565e-08
4.36277e-06
5.23951e-08
4.31018e-06
5.25861e-08
4.25717e-06
5.30107e-08
4.20357e-06
5.35971e-08
4.1495e-06
5.40702e-08
4.0953e-06
5.41996e-08
4.04134e-06
5.39558e-08
3.98762e-06
5.37123e-08
3.93359e-06
5.40288e-08
3.87876e-06
5.4834e-08
3.82299e-06
5.57649e-08
3.7668e-06
5.61947e-08
3.71117e-06
5.56255e-08
3.6561e-06
5.50724e-08
3.60073e-06
5.53641e-08
3.54436e-06
5.63711e-08
3.48758e-06
5.67739e-08
3.4317e-06
5.58807e-08
3.37654e-06
5.5158e-08
3.32098e-06
5.55542e-08
3.26461e-06
5.63715e-08
3.21038e-06
5.42274e-08
3.15676e-06
5.36186e-08
3.10312e-06
5.36469e-08
3.04664e-06
5.64734e-08
2.98909e-06
5.75559e-08
2.93243e-06
5.66508e-08
2.87355e-06
5.88768e-08
2.81344e-06
6.01148e-08
6.59691e-08
-2.06649e-05
-3.07745e-06
-1.91575e-05
-3.00489e-06
-1.77135e-05
-2.84063e-06
-1.6399e-05
-2.51976e-06
-1.51511e-05
-2.4612e-06
-1.39685e-05
-2.33672e-06
-1.28285e-05
-1.88841e-06
-1.17625e-05
-1.32761e-06
-1.07941e-05
-8.57009e-07
-9.75268e-06
-7.88419e-07
-8.14997e-06
-1.62684e-06
-4.72658e-06
-4.82092e-06
2.04198e-07
-9.59618e-06
5.41237e-06
-1.26553e-05
1.07701e-05
-1.42199e-05
1.61022e-05
-1.51528e-05
2.12269e-05
-1.57507e-05
2.58615e-05
-1.53139e-05
2.94173e-05
-1.32623e-05
3.14919e-05
-1.00345e-05
3.17401e-05
-5.58808e-06
3.0758e-05
-6.21054e-07
3.10407e-05
2.86527e-06
3.25274e-05
5.0923e-06
3.37174e-05
5.98681e-06
3.40825e-05
5.53237e-06
3.39669e-05
3.81499e-06
3.38072e-05
2.29164e-06
3.37772e-05
1.30653e-06
3.39238e-05
5.07898e-07
3.42296e-05
-2.43754e-07
3.46049e-05
-9.09531e-07
3.51562e-05
-1.47873e-06
3.59238e-05
-1.83808e-06
3.69049e-05
-1.89753e-06
3.79116e-05
-1.68571e-06
3.87221e-05
-1.46309e-06
3.94338e-05
-1.5073e-06
4.01425e-05
-1.60063e-06
4.08932e-05
-1.51805e-06
4.17462e-05
-1.4507e-06
4.27121e-05
-1.60907e-06
4.37369e-05
-2.02516e-06
4.48304e-05
-2.45344e-06
4.60242e-05
-2.5626e-06
4.71828e-05
-2.21833e-06
4.81917e-05
-1.68702e-06
4.90991e-05
-1.45887e-06
5.00086e-05
-1.6736e-06
5.10225e-05
-2.12619e-06
5.21348e-05
-2.38188e-06
5.32559e-05
-2.23056e-06
5.42485e-05
-1.81948e-06
5.50764e-05
-1.5723e-06
5.58231e-05
-1.59577e-06
5.65701e-05
-1.70288e-06
5.73883e-05
-1.79703e-06
5.8268e-05
-1.8504e-06
5.92148e-05
-1.90096e-06
6.0193e-05
-2.05642e-06
6.10839e-05
-2.13536e-06
6.18393e-05
-1.79665e-06
6.25023e-05
-1.22828e-06
6.3077e-05
-8.07289e-07
6.35877e-05
-6.77941e-07
6.40776e-05
-7.34736e-07
6.44058e-05
-5.60702e-07
6.44899e-05
-1.12329e-07
6.44273e-05
2.42962e-07
6.43222e-05
2.74003e-07
6.42035e-05
1.33688e-07
6.41065e-05
9.35391e-08
6.4055e-05
2.20079e-07
6.38572e-05
6.35546e-07
6.34099e-05
1.7564e-06
6.29924e-05
2.95916e-06
6.33539e-05
4.06865e-06
6.47115e-05
5.96019e-06
6.23741e-05
8.20531e-06
5.75257e-05
6.77992e-06
5.06695e-05
7.90603e-06
4.4557e-05
5.99925e-06
4.2679e-05
2.72623e-06
4.1065e-05
2.51343e-06
4.02063e-05
1.73229e-06
3.89675e-05
3.18608e-06
3.71843e-05
3.62293e-06
3.55599e-05
2.98568e-06
3.48114e-05
1.28739e-06
3.32262e-05
1.74869e-06
3.18209e-05
1.34682e-06
3.11698e-05
5.58419e-07
3.07496e-05
5.75413e-07
3.05546e-05
4.61433e-07
3.05534e-05
5.95012e-07
3.03214e-05
1.01124e-06
3.01842e-05
1.65335e-06
2.97503e-05
2.34722e-06
3.00271e-05
3.37835e-06
2.95822e-05
5.35696e-06
2.81114e-05
5.84847e-06
2.43687e-05
6.29678e-06
1.88781e-05
5.9302e-06
1.42126e-05
4.933e-06
1.08818e-05
2.69756e-06
9.34091e-06
5.30631e-07
8.91968e-06
-4.48013e-08
8.74292e-06
3.15293e-07
9.57587e-06
-6.51146e-07
1.10404e-05
-1.67796e-06
1.17583e-05
-9.09196e-07
1.19845e-05
-6.06373e-07
1.21928e-05
-6.34752e-07
1.22426e-05
-3.64099e-07
1.25643e-05
-3.6498e-07
1.29741e-05
-3.12344e-07
1.35967e-05
1.71697e-07
1.39736e-05
7.02695e-07
1.39915e-05
5.75793e-07
1.31695e-05
7.75605e-07
1.19542e-05
7.6958e-07
1.12829e-05
3.78805e-07
1.11193e-05
-3.93199e-07
1.12978e-05
-8.2262e-07
1.15227e-05
-6.46507e-07
1.20843e-05
-9.55276e-07
1.27556e-05
-1.06269e-06
1.31984e-05
-7.9735e-07
1.35785e-05
-7.82215e-07
1.39256e-05
-7.73319e-07
1.42448e-05
-7.05902e-07
1.46197e-05
-7.53744e-07
1.50191e-05
-7.65549e-07
1.54007e-05
-7.42507e-07
1.57636e-05
-7.14852e-07
1.61204e-05
-7.12838e-07
1.64778e-05
-7.20335e-07
1.68234e-05
-7.01303e-07
1.71691e-05
-6.94789e-07
1.75102e-05
-6.78547e-07
1.78401e-05
-6.52971e-07
1.8156e-05
-6.23402e-07
1.84547e-05
-5.92567e-07
1.87331e-05
-5.57312e-07
1.89926e-05
-5.17402e-07
1.92345e-05
-4.78481e-07
1.94592e-05
-4.44155e-07
1.96657e-05
-4.10919e-07
1.98511e-05
-3.72024e-07
2.00137e-05
-3.27507e-07
2.0156e-05
-2.81783e-07
2.02792e-05
-2.41854e-07
2.03841e-05
-2.07272e-07
2.0468e-05
-1.68973e-07
2.05286e-05
-1.23953e-07
2.05661e-05
-7.8285e-08
2.05853e-05
-3.73933e-08
2.05864e-05
8.37885e-10
2.05655e-05
4.31935e-08
2.05203e-05
8.84995e-08
2.04528e-05
1.32268e-07
2.03655e-05
1.71861e-07
2.02579e-05
2.12817e-07
2.01265e-05
2.61275e-07
1.99713e-05
3.09141e-07
1.97951e-05
3.49753e-07
1.95975e-05
3.9166e-07
1.93738e-05
4.44624e-07
1.91236e-05
4.98253e-07
1.88505e-05
5.42518e-07
1.85551e-05
5.85907e-07
1.82327e-05
6.39054e-07
1.78814e-05
6.98691e-07
1.75028e-05
7.5605e-07
1.7098e-05
8.05195e-07
1.66672e-05
8.54423e-07
1.62077e-05
9.12788e-07
1.57185e-05
9.75277e-07
1.52032e-05
1.03231e-06
1.46595e-05
1.08684e-06
1.4085e-05
1.14347e-06
1.34815e-05
1.20337e-06
1.28541e-05
1.25905e-06
1.22075e-05
1.29632e-06
1.15411e-05
1.32995e-06
1.08563e-05
1.37182e-06
1.01554e-05
1.41175e-06
9.43723e-06
1.44559e-06
8.70485e-06
1.46702e-06
7.96578e-06
1.47678e-06
7.2271e-06
1.47673e-06
6.49339e-06
1.47189e-06
5.76533e-06
1.46953e-06
5.0432e-06
1.45781e-06
4.32601e-06
1.44166e-06
3.61865e-06
1.41621e-06
2.9298e-06
1.3757e-06
2.264e-06
1.33007e-06
1.61892e-06
1.28966e-06
9.91995e-07
1.25577e-06
3.855e-07
1.21622e-06
-1.95999e-07
1.16555e-06
-7.51455e-07
1.10951e-06
-1.2838e-06
1.0574e-06
-1.79443e-06
1.0135e-06
-2.28435e-06
9.74432e-07
-2.75253e-06
9.33668e-07
-3.19766e-06
8.90293e-07
-3.62175e-06
8.46653e-07
-4.02798e-06
8.07554e-07
-4.41855e-06
7.76378e-07
-4.79156e-06
7.45897e-07
-5.1441e-06
7.07177e-07
-5.4777e-06
6.65611e-07
-5.79479e-06
6.30039e-07
-6.09628e-06
5.99762e-07
-6.38371e-06
5.75203e-07
-6.65783e-06
5.5067e-07
-6.91793e-06
5.21364e-07
-7.16265e-06
4.88241e-07
-7.39093e-06
4.54137e-07
-7.60592e-06
4.27409e-07
-7.80865e-06
4.04598e-07
-7.99989e-06
3.8456e-07
-8.17992e-06
3.62265e-07
-8.3486e-06
3.37797e-07
-8.50502e-06
3.12615e-07
-8.65021e-06
2.88928e-07
-8.78455e-06
2.6688e-07
-8.9088e-06
2.48436e-07
-9.02431e-06
2.33271e-07
-9.13147e-06
2.15855e-07
-9.22909e-06
1.95447e-07
-9.31699e-06
1.76407e-07
-9.39571e-06
1.58031e-07
-9.46651e-06
1.41955e-07
-9.53102e-06
1.29335e-07
-9.59013e-06
1.18549e-07
-9.64329e-06
1.05623e-07
-9.68946e-06
9.12038e-08
-9.72875e-06
7.94975e-08
-9.76111e-06
6.73835e-08
-9.788e-06
5.59279e-08
-9.8105e-06
4.46917e-08
-9.82869e-06
3.48612e-08
-9.84244e-06
2.65158e-08
-9.85244e-06
2.12779e-08
-9.85856e-06
1.48868e-08
-9.86011e-06
3.33079e-09
-9.85703e-06
-6.77957e-09
-9.85105e-06
-1.24321e-08
-9.84303e-06
-1.68773e-08
-9.83243e-06
-2.12437e-08
-9.81772e-06
-2.80123e-08
-9.79905e-06
-3.56039e-08
-9.77782e-06
-4.15904e-08
-9.75461e-06
-4.64054e-08
-9.72974e-06
-5.08326e-08
-9.70325e-06
-5.44105e-08
-9.67369e-06
-5.91129e-08
-9.63964e-06
-6.64848e-08
-9.60246e-06
-7.32728e-08
-9.5631e-06
-7.9294e-08
-9.52167e-06
-8.39202e-08
-9.47865e-06
-8.65517e-08
-9.4336e-06
-8.93868e-08
-9.38564e-06
-9.42259e-08
-9.33414e-06
-1.02022e-07
-9.27854e-06
-1.1171e-07
-9.2198e-06
-1.1834e-07
-9.15875e-06
-1.2312e-07
-9.09522e-06
-1.27562e-07
-9.02846e-06
-1.32215e-07
-8.958e-06
-1.39105e-07
-8.88413e-06
-1.47347e-07
-8.80705e-06
-1.54751e-07
-8.72629e-06
-1.61928e-07
-8.64108e-06
-1.70255e-07
-8.55133e-06
-1.79146e-07
-8.45728e-06
-1.88221e-07
-8.35962e-06
-1.95736e-07
-8.25858e-06
-2.01322e-07
-8.15304e-06
-2.09458e-07
-8.0417e-06
-2.21663e-07
-7.92466e-06
-2.33822e-07
-7.80276e-06
-2.44185e-07
-7.67628e-06
-2.53815e-07
-7.54451e-06
-2.6396e-07
-7.40669e-06
-2.74374e-07
-7.26308e-06
-2.85024e-07
-7.11334e-06
-2.98127e-07
-6.95732e-06
-3.11691e-07
-6.79534e-06
-3.24723e-07
-6.62705e-06
-3.37702e-07
-6.45178e-06
-3.49909e-07
-6.26958e-06
-3.61938e-07
-6.08017e-06
-3.77287e-07
-5.88491e-06
-3.90318e-07
-5.68376e-06
-4.03376e-07
-5.47491e-06
-4.18995e-07
-5.25791e-06
-4.33077e-07
-5.03381e-06
-4.4605e-07
-4.8041e-06
-4.58949e-07
-4.5695e-06
-4.70859e-07
-4.32816e-06
-4.84387e-07
-4.0798e-06
-4.96103e-07
-3.8264e-06
-5.06247e-07
-3.56936e-06
-5.15207e-07
-3.30849e-06
-5.24038e-07
-3.044e-06
-5.31649e-07
-2.77688e-06
-5.3571e-07
-2.50806e-06
-5.37924e-07
-2.23943e-06
-5.38275e-07
-1.97139e-06
-5.38591e-07
-1.70395e-06
-5.37587e-07
-1.43822e-06
-5.3289e-07
-1.17577e-06
-5.25603e-07
-9.18054e-07
-5.16786e-07
-6.66008e-07
-5.06198e-07
-4.1964e-07
-4.9461e-07
-1.79261e-07
-4.81067e-07
5.44456e-08
-4.66111e-07
2.80706e-07
-4.51038e-07
4.99094e-07
-4.35814e-07
7.09459e-07
-4.2005e-07
9.12323e-07
-4.04304e-07
1.108e-06
-3.89366e-07
1.29653e-06
-3.75446e-07
1.47782e-06
-3.61647e-07
1.65177e-06
-3.47333e-07
1.81862e-06
-3.32871e-07
1.97861e-06
-3.18548e-07
2.13187e-06
-3.05149e-07
2.27862e-06
-2.92605e-07
2.41897e-06
-2.80292e-07
2.55297e-06
-2.67821e-07
2.6808e-06
-2.5536e-07
2.80262e-06
-2.42998e-07
2.91837e-06
-2.30699e-07
3.02808e-06
-2.18942e-07
3.13194e-06
-2.07632e-07
3.23018e-06
-1.96571e-07
3.32288e-06
-1.85516e-07
3.41006e-06
-1.74151e-07
3.49205e-06
-1.63484e-07
3.56896e-06
-1.53538e-07
3.6408e-06
-1.4381e-07
3.7077e-06
-1.34103e-07
3.76977e-06
-1.24255e-07
3.82726e-06
-1.14786e-07
3.88025e-06
-1.05796e-07
3.92889e-06
-9.74085e-08
3.97329e-06
-8.90824e-08
4.01363e-06
-8.07001e-08
4.05002e-06
-7.2704e-08
4.08253e-06
-6.51965e-08
4.11137e-06
-5.80423e-08
4.13676e-06
-5.10506e-08
4.15887e-06
-4.43261e-08
4.17776e-06
-3.79843e-08
4.1935e-06
-3.17865e-08
4.20623e-06
-2.58386e-08
4.21624e-06
-2.02997e-08
4.22362e-06
-1.4829e-08
4.22846e-06
-9.68732e-09
4.23083e-06
-4.80909e-09
4.23086e-06
-2.86259e-10
4.22874e-06
4.00144e-09
4.22453e-06
8.18165e-09
4.21837e-06
1.21703e-08
4.21037e-06
1.59417e-08
4.20064e-06
1.93021e-08
4.18936e-06
2.23224e-08
4.17662e-06
2.52698e-08
4.16242e-06
2.82125e-08
4.14683e-06
3.09419e-08
4.12996e-06
3.34703e-08
4.11201e-06
3.57039e-08
4.09307e-06
3.78908e-08
4.07315e-06
3.99343e-08
4.05227e-06
4.17217e-08
4.03055e-06
4.32428e-08
4.00816e-06
4.45678e-08
3.9851e-06
4.59357e-08
3.96135e-06
4.73039e-08
3.93705e-06
4.85e-08
3.91233e-06
4.94861e-08
3.88716e-06
5.03269e-08
3.86156e-06
5.10051e-08
3.83559e-06
5.17451e-08
3.80939e-06
5.25815e-08
3.78286e-06
5.31384e-08
3.75608e-06
5.34536e-08
3.72886e-06
5.41951e-08
3.70153e-06
5.4623e-08
3.67395e-06
5.49953e-08
3.64633e-06
5.5251e-08
3.61847e-06
5.58416e-08
3.59051e-06
5.61694e-08
3.5621e-06
5.6668e-08
3.53388e-06
5.64118e-08
3.50539e-06
5.66084e-08
3.47719e-06
5.63686e-08
3.44874e-06
5.67253e-08
3.42097e-06
5.5781e-08
3.39241e-06
5.67369e-08
3.3646e-06
5.51889e-08
3.3363e-06
5.54667e-08
3.30874e-06
5.40738e-08
3.28299e-06
5.21997e-08
3.25748e-06
5.17932e-08
3.23381e-06
4.98562e-08
3.20755e-06
5.28351e-08
3.18238e-06
5.05743e-08
3.15302e-06
5.4727e-08
3.12319e-06
5.6704e-08
3.10076e-06
4.84119e-08
3.08035e-06
4.95056e-08
3.05647e-06
5.48059e-08
3.03418e-06
4.58917e-08
2.98263e-06
7.65972e-08
2.92521e-06
8.56771e-08
2.91393e-06
3.25658e-08
2.90937e-06
5.25281e-08
2.93865e-06
2.59134e-08
2.98032e-06
-2.96719e-08
3.11413e-06
-1.01279e-07
3.25973e-06
-1.42144e-07
3.32222e-06
-9.60849e-08
3.33074e-06
-1.32108e-07
3.30102e-06
-1.16247e-07
3.29581e-06
-6.27847e-08
3.28483e-06
-3.9528e-08
3.28402e-06
-2.01564e-08
3.27907e-06
-5.42564e-09
3.27571e-06
3.83088e-09
3.26657e-06
1.16286e-08
3.25702e-06
1.62885e-08
3.22685e-06
3.94689e-08
3.19308e-06
5.02847e-08
3.18697e-06
2.06025e-08
3.1818e-06
3.90479e-08
3.19212e-06
2.86476e-08
3.20662e-06
-1.32689e-09
3.26778e-06
-3.33964e-08
3.3303e-06
-4.85631e-08
3.33973e-06
-1.61375e-08
3.32454e-06
-3.55632e-08
3.28907e-06
-2.17481e-08
3.27205e-06
4.81868e-09
3.2437e-06
2.31769e-08
3.22242e-06
2.93843e-08
3.18381e-06
5.35792e-08
3.1527e-06
4.70938e-08
3.12608e-06
5.00095e-08
3.1114e-06
3.92713e-08
3.09696e-06
5.05988e-08
3.08447e-06
5.11043e-08
3.06447e-06
4.93391e-08
2.94623e-06
1.5564e-07
2.83293e-06
1.47386e-07
2.81438e-06
4.86082e-08
2.81201e-06
1.21709e-07
3.0211e-06
-1.01199e-07
3.26072e-06
-2.18441e-07
4.01863e-06
-6.62068e-07
4.76896e-06
-8.54222e-07
5.26166e-06
-6.57594e-07
5.44789e-06
-8.42635e-07
5.41715e-06
-7.8216e-07
5.47579e-06
-5.7255e-07
5.55273e-06
-4.17099e-07
5.62944e-06
-3.12526e-07
5.69947e-06
-2.34674e-07
5.75995e-06
-1.7742e-07
5.80871e-06
-1.32793e-07
5.84624e-06
-9.61787e-08
5.8736e-06
-6.86065e-08
5.89281e-06
-4.70242e-08
5.90385e-06
-2.86899e-08
5.90819e-06
-1.22508e-08
5.90693e-06
-1.43773e-11
5.90073e-06
1.00072e-08
5.88999e-06
2.06097e-08
5.87545e-06
2.84936e-08
5.85761e-06
3.49869e-08
5.83669e-06
4.26962e-08
5.81302e-06
4.78997e-08
5.78694e-06
5.2459e-08
5.75847e-06
5.66244e-08
5.72763e-06
6.27013e-08
5.69478e-06
6.64606e-08
5.6602e-06
6.97629e-08
5.62395e-06
7.28555e-08
5.58604e-06
7.57218e-08
5.54711e-06
7.81356e-08
5.50697e-06
8.0574e-08
5.46563e-06
8.28031e-08
5.42332e-06
8.48816e-08
5.38018e-06
8.65577e-08
5.33632e-06
8.81631e-08
5.29192e-06
8.75191e-08
5.24682e-06
8.87816e-08
5.20129e-06
8.99846e-08
5.1549e-06
9.12856e-08
5.10828e-06
9.23351e-08
5.06145e-06
9.33991e-08
5.01367e-06
9.47133e-08
4.96546e-06
9.57455e-08
4.91669e-06
9.69661e-08
4.86729e-06
9.82512e-08
4.81719e-06
9.95444e-08
4.76675e-06
1.00319e-07
4.71567e-06
1.01132e-07
4.66414e-06
1.0377e-07
4.61246e-06
1.04128e-07
4.56041e-06
1.04452e-07
4.50814e-06
1.04747e-07
4.4557e-06
1.04945e-07
4.40303e-06
1.05028e-07
4.35026e-06
1.05154e-07
4.29736e-06
1.05485e-07
4.24417e-06
1.06201e-07
4.19057e-06
1.07191e-07
4.13663e-06
1.08006e-07
4.08256e-06
1.08267e-07
4.02846e-06
1.08055e-07
3.97413e-06
1.08031e-07
3.91942e-06
1.08743e-07
3.86387e-06
1.10374e-07
3.80806e-06
1.11572e-07
3.75286e-06
1.11397e-07
3.69796e-06
1.10523e-07
3.64258e-06
1.10445e-07
3.58637e-06
1.1157e-07
3.53008e-06
1.12659e-07
3.47444e-06
1.12409e-07
3.41934e-06
1.1098e-07
3.36354e-06
1.10953e-07
3.30723e-06
1.11857e-07
3.25119e-06
1.12406e-07
3.19579e-06
1.09625e-07
3.14023e-06
1.0918e-07
3.08346e-06
1.10415e-07
3.02654e-06
1.13392e-07
2.97026e-06
1.13832e-07
2.91417e-06
1.12734e-07
2.85937e-06
1.13676e-07
2.80347e-06
1.1601e-07
1.21973e-07
-2.06804e-05
-4.64519e-06
-1.91524e-05
-4.53206e-06
-1.7676e-05
-4.31648e-06
-1.62914e-05
-3.90396e-06
-1.49798e-05
-3.77247e-06
-1.3677e-05
-3.63917e-06
-1.22781e-05
-3.28712e-06
-1.07593e-05
-2.84611e-06
-9.15465e-06
-2.46151e-06
-7.42464e-06
-2.51826e-06
-5.35687e-06
-3.69446e-06
-2.64649e-06
-7.53116e-06
-2.07198e-08
-1.22218e-05
2.54087e-06
-1.52168e-05
4.95269e-06
-1.66317e-05
6.81604e-06
-1.7016e-05
7.73768e-06
-1.66723e-05
7.47931e-06
-1.50554e-05
6.49956e-06
-1.22825e-05
5.89548e-06
-9.43032e-06
6.56767e-06
-6.26017e-06
8.99386e-06
-3.04714e-06
1.22559e-05
-3.96719e-07
1.59095e-05
1.43881e-06
1.97265e-05
2.16998e-06
2.31823e-05
2.07663e-06
2.56417e-05
1.3557e-06
2.75044e-05
4.29044e-07
2.9138e-05
-3.26908e-07
3.05412e-05
-8.95171e-07
3.16562e-05
-1.35867e-06
3.25109e-05
-1.76413e-06
3.33042e-05
-2.27192e-06
3.42516e-05
-2.78534e-06
3.54541e-05
-3.0999e-06
3.67475e-05
-2.97905e-06
3.78787e-05
-2.59416e-06
3.87348e-05
-2.36333e-06
3.94776e-05
-2.34343e-06
4.03591e-05
-2.39941e-06
4.14473e-05
-2.5389e-06
4.26427e-05
-2.80438e-06
4.37633e-05
-3.1457e-06
4.4796e-05
-3.48602e-06
4.58595e-05
-3.62608e-06
4.69935e-05
-3.35233e-06
4.81806e-05
-2.87402e-06
4.93957e-05
-2.67396e-06
5.05509e-05
-2.82877e-06
5.15952e-05
-3.17044e-06
5.25865e-05
-3.37314e-06
5.35854e-05
-3.22955e-06
5.45694e-05
-2.80346e-06
5.54506e-05
-2.4536e-06
5.62109e-05
-2.35607e-06
5.68983e-05
-2.39039e-06
5.75958e-05
-2.49456e-06
5.83425e-05
-2.59717e-06
5.91446e-05
-2.70317e-06
5.99599e-05
-2.87189e-06
6.07052e-05
-2.8807e-06
6.1387e-05
-2.47855e-06
6.20848e-05
-1.92621e-06
6.28986e-05
-1.62115e-06
6.38223e-05
-1.60166e-06
6.45947e-05
-1.50728e-06
6.50471e-05
-1.01315e-06
6.52807e-05
-3.45897e-07
6.54282e-05
9.54492e-08
6.5498e-05
2.04089e-07
6.54916e-05
1.40158e-07
6.54936e-05
9.15488e-08
6.55262e-05
1.87432e-07
6.552e-05
6.41849e-07
6.54564e-05
1.81998e-06
6.53884e-05
3.02717e-06
6.5485e-05
3.97219e-06
6.67577e-05
4.68748e-06
6.96858e-05
5.27725e-06
7.06193e-05
5.8465e-06
7.0976e-05
7.5493e-06
6.73473e-05
9.62797e-06
6.15458e-05
8.52777e-06
5.37511e-05
1.03081e-05
4.69907e-05
8.49271e-06
4.47452e-05
5.43155e-06
4.23356e-05
6.03256e-06
4.04245e-05
4.89682e-06
3.91567e-05
2.55513e-06