/*--------------------------------*- C++ -*----------------------------------*\
| =========                 |                                                 |
| \\      /  F ield         | OpenFOAM: The Open Source CFD Toolbox           |
|  \\    /   O peration     | Version:  v2006                                 |
|   \\  /    A nd           | Website:  www.openfoam.com                      |
|    \\/     M anipulation  |                                                 |
\*---------------------------------------------------------------------------*/
FoamFile
{
    version     2.0;
    format      ascii;
    class       volVectorField;
    location    "5.2";
    object      U;
}
// * * * * * * * * * * * * * * * * * * * * * * * * * * * * * * * * * * * * * //

dimensions      [0 1 -1 0 0 0 0];


internalField   nonuniform List<vector> 
33000
(
(-0.0223856 0 -0.00297719)
(-0.0666574 0 -0.00293502)
(-0.0374088 0 -0.00273661)
(-0.0471967 0 -0.00221065)
(-0.0382821 0 -0.00243478)
(-0.0373522 0 -0.00246045)
(-0.0340158 0 -0.00114065)
(-0.0331085 0 0.000393294)
(-0.0331079 0 0.00131126)
(-0.0336289 0 0.00174586)
(-0.0341713 0 0.00173973)
(-0.0336363 0 -0.000218291)
(-0.0270761 0 -0.00816956)
(-0.0098763 0 -0.0193396)
(0.0102897 0 -0.0249477)
(0.0333305 0 -0.0276395)
(0.058567 0 -0.0295263)
(0.0854977 0 -0.0307425)
(0.11182 0 -0.0309309)
(0.134992 0 -0.0319321)
(0.153369 0 -0.0310721)
(0.164038 0 -0.0201078)
(0.161336 0 0.000904229)
(0.146733 0 0.0199135)
(0.127381 0 0.0256311)
(0.110024 0 0.0200881)
(0.0982582 0 0.012163)
(0.0916415 0 0.00694297)
(0.0877815 0 0.00398553)
(0.0854789 0 0.00213076)
(0.084497 0 0.00055361)
(0.0852324 0 -0.00115579)
(0.0871533 0 -0.00213073)
(0.0897397 0 -0.00218513)
(0.0924106 0 -0.00147583)
(0.0944884 0 -0.000734796)
(0.0959436 0 -0.000912608)
(0.0975973 0 -0.00149579)
(0.0997976 0 -0.00174115)
(0.102103 0 -0.00135754)
(0.103869 0 -0.000707065)
(0.105093 0 -0.000735671)
(0.106944 0 -0.00189377)
(0.110015 0 -0.00284571)
(0.113624 0 -0.00270403)
(0.116906 0 -0.00178307)
(0.119146 0 -0.000773098)
(0.120329 0 -0.000618327)
(0.121777 0 -0.00129776)
(0.124134 0 -0.00219957)
(0.127322 0 -0.00250825)
(0.130494 0 -0.00197832)
(0.132851 0 -0.00131156)
(0.134659 0 -0.00123788)
(0.136569 0 -0.00161322)
(0.138881 0 -0.00196252)
(0.141365 0 -0.00194887)
(0.143802 0 -0.00183053)
(0.146188 0 -0.00164126)
(0.148527 0 -0.00202049)
(0.151534 0 -0.00267556)
(0.154659 0 -0.00215706)
(0.156697 0 -0.000771386)
(0.157626 0 4.56715e-05)
(0.157982 0 0.000122167)
(0.158427 0 -0.000188317)
(0.159135 0 -0.000322385)
(0.159547 0 7.46412e-05)
(0.159243 0 0.00055989)
(0.158683 0 0.000372825)
(0.158471 0 -6.04093e-05)
(0.158487 0 -8.60929e-05)
(0.158496 0 0.000424942)
(0.157375 0 0.000745239)
(0.156585 0 0.00341954)
(0.149961 0 0.00551512)
(0.149645 0 0.0134677)
(0.133895 0 0.0228652)
(0.100979 0 0.0114932)
(0.104468 0 0.00112031)
(0.0945528 0 -0.00398684)
(0.0964336 0 -0.00563477)
(0.0962231 0 0.00312356)
(0.0921236 0 0.00701291)
(0.0914489 0 0.00660867)
(0.087837 0 0.00580082)
(0.0820078 0 0.000742873)
(0.0782674 0 -0.00267222)
(0.0754532 0 -0.00285879)
(0.0753701 0 -0.00169923)
(0.0748296 0 -0.000844514)
(0.075514 0 0.000290923)
(0.0753691 0 0.00107805)
(0.0747014 0 0.00106404)
(0.0740903 0 0.00192173)
(0.0716312 0 0.00207521)
(0.0703693 0 0.00491723)
(0.0637521 0 0.00568577)
(0.061353 0 0.0142551)
(0.0451582 0 0.0136763)
(0.0362332 0 0.00800435)
(0.0241038 0 -0.00502962)
(0.0230759 0 -0.0114144)
(0.0219589 0 -0.0056361)
(0.0218587 0 0.000355834)
(0.0249833 0 0.00382812)
(0.0269315 0 0.00273524)
(0.0273295 0 0.00150053)
(0.0262263 0 -0.0014901)
(0.0265064 0 -0.00341623)
(0.027168 0 -0.00300321)
(0.027555 0 -0.00206499)
(0.0290355 0 -0.000833699)
(0.0296593 0 -0.000191609)
(0.0306674 0 0.000664714)
(0.0297649 0 0.00091443)
(0.0303926 0 0.00318305)
(0.0256858 0 0.00332668)
(0.0247598 0 0.00103306)
(0.0230886 0 -0.00249088)
(0.0247794 0 -0.00398687)
(0.0253629 0 -0.00195324)
(0.0262776 0 -0.000771718)
(0.0281269 0 6.32126e-05)
(0.0294504 0 -8.32368e-05)
(0.030299 0 -0.000678673)
(0.0313819 0 -0.00121085)
(0.0322643 0 -0.00109151)
(0.0331637 0 -0.000932288)
(0.0342691 0 -0.000717949)
(0.0352805 0 -0.00061589)
(0.0362192 0 -0.000662591)
(0.0371592 0 -0.000752005)
(0.0380608 0 -0.000763718)
(0.038955 0 -0.000736057)
(0.039826 0 -0.000683895)
(0.0407347 0 -0.000657149)
(0.0416369 0 -0.000629407)
(0.0425171 0 -0.000629833)
(0.0433803 0 -0.000628104)
(0.044207 0 -0.000617965)
(0.0449959 0 -0.000591856)
(0.0457467 0 -0.000567895)
(0.046467 0 -0.000540707)
(0.0471418 0 -0.000499414)
(0.0477587 0 -0.00045788)
(0.0483274 0 -0.000427788)
(0.0488584 0 -0.000401137)
(0.0493507 0 -0.000368253)
(0.0497938 0 -0.000326375)
(0.0501759 0 -0.000272517)
(0.0504951 0 -0.000230341)
(0.0507711 0 -0.000200953)
(0.0510087 0 -0.000168922)
(0.0511967 0 -0.000127787)
(0.0513272 0 -8.30161e-05)
(0.0514003 0 -3.5103e-05)
(0.0514197 0 6.22932e-06)
(0.0513901 0 4.47121e-05)
(0.0513078 0 8.30545e-05)
(0.0511722 0 0.000125397)
(0.0509836 0 0.000165687)
(0.0507482 0 0.000207441)
(0.0504553 0 0.000256772)
(0.0500974 0 0.000304896)
(0.0496845 0 0.000342743)
(0.0492278 0 0.000383879)
(0.0487119 0 0.000437849)
(0.0481216 0 0.000492053)
(0.0474714 0 0.000534406)
(0.0467732 0 0.000576125)
(0.0460174 0 0.000627904)
(0.045189 0 0.000690378)
(0.0442796 0 0.000752556)
(0.0433027 0 0.000795339)
(0.042277 0 0.00084051)
(0.0411839 0 0.000898356)
(0.0400102 0 0.00096474)
(0.0387539 0 0.00103009)
(0.0374259 0 0.00107826)
(0.036038 0 0.00112354)
(0.0345812 0 0.00118419)
(0.0330383 0 0.00125191)
(0.0314251 0 0.00128138)
(0.0297897 0 0.00130193)
(0.0281067 0 0.00135315)
(0.0263553 0 0.00140623)
(0.0245526 0 0.00143761)
(0.0227186 0 0.00144291)
(0.0208792 0 0.00144613)
(0.0190298 0 0.00144896)
(0.0171891 0 0.00145437)
(0.0153375 0 0.00146987)
(0.0134826 0 0.00145843)
(0.0116582 0 0.00142853)
(0.00986008 0 0.00139225)
(0.00811371 0 0.00134862)
(0.00642527 0 0.00130606)
(0.00479229 0 0.00126785)
(0.00320183 0 0.00123849)
(0.00164812 0 0.00120343)
(0.000152146 0 0.00115255)
(-0.00127264 0 0.00108924)
(-0.00261807 0 0.00102662)
(-0.00389789 0 0.000982904)
(-0.00513217 0 0.000948287)
(-0.00632007 0 0.000912635)
(-0.00745937 0 0.000875588)
(-0.0085452 0 0.000830432)
(-0.00957202 0 0.000785306)
(-0.0105516 0 0.000754398)
(-0.0115008 0 0.000732838)
(-0.0124153 0 0.000699626)
(-0.0132733 0 0.000650949)
(-0.0140758 0 0.000611564)
(-0.0148377 0 0.000583811)
(-0.0155678 0 0.000566533)
(-0.0162763 0 0.000546149)
(-0.0169503 0 0.000514277)
(-0.0175827 0 0.000476844)
(-0.0181676 0 0.000441845)
(-0.0187128 0 0.000415569)
(-0.0192294 0 0.000395933)
(-0.0197231 0 0.000381447)
(-0.0201955 0 0.000360014)
(-0.0206346 0 0.000332334)
(-0.0210412 0 0.000306562)
(-0.0214157 0 0.000281532)
(-0.0217601 0 0.000259007)
(-0.0220786 0 0.000243836)
(-0.0223813 0 0.000233003)
(-0.0226671 0 0.000214546)
(-0.0229246 0 0.000191993)
(-0.0231567 0 0.000174099)
(-0.0233667 0 0.000156131)
(-0.0235537 0 0.000140467)
(-0.0237225 0 0.00012831)
(-0.0238779 0 0.000117142)
(-0.0240195 0 0.000101957)
(-0.0241398 0 8.69553e-05)
(-0.0242453 0 7.86206e-05)
(-0.0243403 0 7.07188e-05)
(-0.0244208 0 5.89208e-05)
(-0.0244851 0 4.3288e-05)
(-0.0245325 0 3.18262e-05)
(-0.0245684 0 2.46265e-05)
(-0.0245969 0 2.34089e-05)
(-0.0246252 0 1.93491e-05)
(-0.0246403 0 3.11823e-06)
(-0.024635 0 -7.85282e-06)
(-0.0246221 0 -1.27306e-05)
(-0.0246029 0 -1.77081e-05)
(-0.0245784 0 -2.11095e-05)
(-0.0245497 0 -2.52458e-05)
(-0.0245122 0 -3.1707e-05)
(-0.0244652 0 -3.94019e-05)
(-0.0244107 0 -4.56746e-05)
(-0.0243493 0 -5.15883e-05)
(-0.0242813 0 -5.60287e-05)
(-0.02421 0 -5.81188e-05)
(-0.0241335 0 -6.20961e-05)
(-0.0240482 0 -6.9791e-05)
(-0.023953 0 -7.88161e-05)
(-0.023849 0 -8.43532e-05)
(-0.0237407 0 -8.63896e-05)
(-0.0236315 0 -8.6869e-05)
(-0.0235192 0 -8.92485e-05)
(-0.0234001 0 -9.83446e-05)
(-0.0232665 0 -0.000110774)
(-0.0231202 0 -0.000117815)
(-0.0229685 0 -0.000122573)
(-0.0228102 0 -0.000125802)
(-0.0226487 0 -0.000127099)
(-0.022483 0 -0.000133557)
(-0.0223057 0 -0.000144806)
(-0.0221159 0 -0.000153253)
(-0.0219177 0 -0.000159495)
(-0.0217103 0 -0.000166526)
(-0.0214927 0 -0.000175244)
(-0.0212635 0 -0.000185194)
(-0.0210221 0 -0.000192988)
(-0.0207736 0 -0.000196333)
(-0.0205208 0 -0.000203096)
(-0.0202541 0 -0.000216445)
(-0.0199695 0 -0.000229429)
(-0.0196706 0 -0.000240536)
(-0.0193582 0 -0.000250572)
(-0.0190342 0 -0.000259736)
(-0.0186975 0 -0.000267334)
(-0.0183517 0 -0.000276305)
(-0.0179904 0 -0.000290835)
(-0.0176102 0 -0.000305856)
(-0.0172121 0 -0.000320183)
(-0.0167968 0 -0.000333615)
(-0.016365 0 -0.000342823)
(-0.0159241 0 -0.000351184)
(-0.0154659 0 -0.000367922)
(-0.0149853 0 -0.000383297)
(-0.0144905 0 -0.000398493)
(-0.0139744 0 -0.000414096)
(-0.0134398 0 -0.000423666)
(-0.0128942 0 -0.000433901)
(-0.0123299 0 -0.000449729)
(-0.0117485 0 -0.000465628)
(-0.0111485 0 -0.000479137)
(-0.0105336 0 -0.000485883)
(-0.0099097 0 -0.00049574)
(-0.00926966 0 -0.000507749)
(-0.00861893 0 -0.000518711)
(-0.00795392 0 -0.000527134)
(-0.00728333 0 -0.000528899)
(-0.00661106 0 -0.000528361)
(-0.00593794 0 -0.000530032)
(-0.00526292 0 -0.000533422)
(-0.00458533 0 -0.000532819)
(-0.00391232 0 -0.000525813)
(-0.00324971 0 -0.000517363)
(-0.00259658 0 -0.000510254)
(-0.00195455 0 -0.000501523)
(-0.00132589 0 -0.000489897)
(-0.000713539 0 -0.000473657)
(-0.000122478 0 -0.000455759)
(0.000448568 0 -0.00044075)
(0.00100128 0 -0.000426869)
(0.00153554 0 -0.000411796)
(0.00204949 0 -0.000394892)
(0.0025426 0 -0.000379198)
(0.0030178 0 -0.000366242)
(0.00347708 0 -0.000353914)
(0.00391943 0 -0.000340514)
(0.00434394 0 -0.000325854)
(0.00474935 0 -0.00031063)
(0.00513665 0 -0.00029763)
(0.00550864 0 -0.000286158)
(0.00586582 0 -0.000274785)
(0.00620821 0 -0.00026287)
(0.00653484 0 -0.000250337)
(0.00684573 0 -0.000237568)
(0.00714061 0 -0.000225214)
(0.0074204 0 -0.000214296)
(0.00768668 0 -0.000203907)
(0.00793914 0 -0.000193344)
(0.00817826 0 -0.000182458)
(0.00840305 0 -0.000170666)
(0.008613 0 -0.000159636)
(0.00881043 0 -0.000150307)
(0.00899597 0 -0.00014144)
(0.00917013 0 -0.000132219)
(0.00933182 0 -0.000122193)
(0.00948093 0 -0.00011234)
(0.00961819 0 -0.000103454)
(0.00974487 0 -9.58375e-05)
(0.00986196 0 -8.79812e-05)
(0.00996819 0 -7.92232e-05)
(0.0100637 0 -7.12203e-05)
(0.0101497 0 -6.4296e-05)
(0.0102271 0 -5.76226e-05)
(0.0102957 0 -5.05523e-05)
(0.0103554 0 -4.3713e-05)
(0.0104068 0 -3.76312e-05)
(0.0104508 0 -3.17622e-05)
(0.010487 0 -2.60343e-05)
(0.0105163 0 -2.04318e-05)
(0.0105384 0 -1.4736e-05)
(0.0105536 0 -9.58104e-06)
(0.0105627 0 -4.80008e-06)
(0.0105659 0 -5.75837e-07)
(0.010564 0 3.51006e-06)
(0.0105566 0 7.56474e-06)
(0.0105441 0 1.16532e-05)
(0.0105265 0 1.55626e-05)
(0.0105044 0 1.86955e-05)
(0.0104786 0 2.14741e-05)
(0.0104492 0 2.43433e-05)
(0.010416 0 2.73013e-05)
(0.0103792 0 2.99134e-05)
(0.0103393 0 3.23416e-05)
(0.0102964 0 3.46674e-05)
(0.0102506 0 3.72546e-05)
(0.0102017 0 3.9374e-05)
(0.0101505 0 4.09044e-05)
(0.0100976 0 4.21354e-05)
(0.010043 0 4.35052e-05)
(0.00998674 0 4.49627e-05)
(0.00992873 0 4.64221e-05)
(0.00986905 0 4.78264e-05)
(0.00980781 0 4.90542e-05)
(0.00974531 0 4.99883e-05)
(0.00968202 0 5.02301e-05)
(0.00961829 0 5.13863e-05)
(0.00955307 0 5.25217e-05)
(0.00948642 0 5.33975e-05)
(0.00941993 0 5.27778e-05)
(0.00935305 0 5.40843e-05)
(0.00928506 0 5.39968e-05)
(0.0092166 0 5.52307e-05)
(0.00914803 0 5.46178e-05)
(0.00907844 0 5.69186e-05)
(0.0090082 0 5.58852e-05)
(0.00893735 0 5.76842e-05)
(0.00886701 0 5.59331e-05)
(0.00879631 0 5.78869e-05)
(0.00872661 0 5.62404e-05)
(0.00865525 0 5.83704e-05)
(0.00858557 0 5.67733e-05)
(0.00851478 0 5.82532e-05)
(0.00844521 0 5.75153e-05)
(0.00837732 0 5.47565e-05)
(0.00830983 0 5.55641e-05)
(0.00824433 0 4.70302e-05)
(0.00817786 0 5.2363e-05)
(0.00811264 0 4.11786e-05)
(0.008047 0 5.385e-05)
(0.00797966 0 4.29574e-05)
(0.00792017 0 5.81981e-05)
(0.0078523 0 4.2939e-05)
(0.00778651 0 5.00285e-05)
(0.00772162 0 2.93078e-05)
(0.0076415 0 5.91466e-05)
(0.0075671 0 4.78384e-05)
(0.00752375 0 9.82617e-05)
(0.00744023 0 7.00043e-05)
(0.00738583 0 3.37674e-05)
(0.0073295 0 -3.12349e-05)
(0.00714793 0 1.99326e-05)
(0.0070565 0 4.75916e-05)
(0.00708429 0 0.000338146)
(0.00689132 0 0.000322339)
(0.00708204 0 1.87666e-05)
(0.00703069 0 -0.000345573)
(0.00771927 0 -0.000503799)
(0.00777237 0 -0.000208398)
(0.00803469 0 -0.00017717)
(0.00804218 0 -7.88462e-05)
(0.00812786 0 -5.56398e-05)
(0.00810207 0 -2.71835e-05)
(0.00812101 0 1.18708e-05)
(0.00809181 0 1.16769e-05)
(0.00808727 0 5.74777e-05)
(0.00804349 0 3.33909e-05)
(0.00800832 0 3.86606e-05)
(0.00796663 0 -5.14481e-06)
(0.00784184 0 5.57673e-05)
(0.0077726 0 4.56251e-05)
(0.00777462 0 0.000231822)
(0.00763075 0 0.000184146)
(0.00771685 0 3.28636e-05)
(0.00764291 0 -0.000172515)
(0.00798352 0 -0.000197952)
(0.00794149 0 -5.931e-05)
(0.00802156 0 -2.23671e-05)
(0.00798474 0 2.27209e-05)
(0.00796757 0 4.06989e-05)
(0.00792119 0 6.62381e-05)
(0.00787783 0 2.25853e-05)
(0.00781297 0 6.42411e-05)
(0.00774692 0 -1.29254e-05)
(0.00763938 0 9.86944e-05)
(0.00754774 0 2.36926e-05)
(0.00749806 0 0.00021522)
(0.00735529 0 6.36692e-05)
(0.00733423 0 9.85374e-05)
(0.00719576 0 -0.000151353)
(0.00674724 0 2.76615e-05)
(0.00665073 0 -1.84083e-05)
(0.00664344 0 0.00102039)
(0.00616896 0 0.000669733)
(0.00717701 0 0.000197686)
(0.00695147 0 -0.00105285)
(0.0105336 0 -0.00230136)
(0.0112512 0 -0.00136717)
(0.0125419 0 -0.000868315)
(0.0132146 0 -0.000580463)
(0.0136852 0 -0.000389076)
(0.0140432 0 -0.000267193)
(0.0142906 0 -0.000187353)
(0.0144679 0 -0.000127863)
(0.0145923 0 -8.86283e-05)
(0.0146778 0 -5.89269e-05)
(0.0147344 0 -3.77123e-05)
(0.0147662 0 -1.71216e-05)
(0.0147775 0 -3.41786e-06)
(0.0147742 0 7.1086e-06)
(0.0147571 0 1.97272e-05)
(0.0147272 0 2.79575e-05)
(0.0146883 0 3.42535e-05)
(0.0146396 0 4.36278e-05)
(0.014582 0 4.84997e-05)
(0.0145187 0 5.26856e-05)
(0.0144505 0 5.60057e-05)
(0.0143754 0 6.33251e-05)
(0.0142936 0 6.67818e-05)
(0.0142075 0 6.98147e-05)
(0.0141177 0 7.26705e-05)
(0.0140246 0 7.46288e-05)
(0.0139283 0 7.74633e-05)
(0.0138287 0 8.01068e-05)
(0.0137263 0 8.21142e-05)
(0.0136212 0 8.42555e-05)
(0.0135137 0 8.58927e-05)
(0.013404 0 8.76489e-05)
(0.0132946 0 8.50923e-05)
(0.0131861 0 8.60672e-05)
(0.0130759 0 8.7534e-05)
(0.0129642 0 8.82793e-05)
(0.012851 0 9.00143e-05)
(0.0127356 0 9.20925e-05)
(0.0126187 0 9.24405e-05)
(0.0125006 0 9.35642e-05)
(0.0123809 0 9.49472e-05)
(0.0122596 0 9.62804e-05)
(0.0121367 0 9.74963e-05)
(0.0120125 0 9.84289e-05)
(0.0118875 0 9.87539e-05)
(0.0117596 0 0.000103237)
(0.0116287 0 0.000103735)
(0.0114976 0 0.000103629)
(0.0113664 0 0.000103706)
(0.0112352 0 0.000103698)
(0.0111041 0 0.000103266)
(0.0109731 0 0.000103255)
(0.0108419 0 0.000103606)
(0.01071 0 0.000104486)
(0.0105766 0 0.000105747)
(0.0104419 0 0.00010681)
(0.0103065 0 0.000107178)
(0.0101713 0 0.000106579)
(0.0100368 0 0.000105754)
(0.00990228 0 0.00010622)
(0.0097662 0 0.000107696)
(0.00962774 0 0.000109803)
(0.00948752 0 0.000111619)
(0.0093477 0 0.000110556)
(0.00920954 0 0.000108755)
(0.00907167 0 0.000108818)
(0.00893181 0 0.000110895)
(0.00879003 0 0.000112531)
(0.00864907 0 0.000111032)
(0.00851057 0 0.00010861)
(0.00837238 0 0.000108876)
(0.00823215 0 0.000110844)
(0.00809359 0 0.000107046)
(0.00795904 0 0.000104999)
(0.0078236 0 0.000104259)
(0.00772081 0 0.000110595)
(0.00740577 0 0.00011402)
(0.00774762 0 0.000112812)
(0.00650078 0 0.000119386)
(0.00861647 0 0.000123628)
(0.00431387 0 0.0001384)
(-0.0223497 0 -0.00901853)
(-0.0665811 0 -0.0088297)
(-0.0373249 0 -0.00829338)
(-0.0468704 0 -0.00726556)
(-0.037659 0 -0.00720946)
(-0.0368442 0 -0.00674403)
(-0.0331515 0 -0.00483211)
(-0.030674 0 -0.00247513)
(-0.0282682 0 -0.000479038)
(-0.025703 0 0.000129226)
(-0.0230261 0 -0.00199147)
(-0.0177564 0 -0.0113734)
(-0.00551191 0 -0.0298691)
(0.00697054 0 -0.0416216)
(0.0202644 0 -0.047919)
(0.0337038 0 -0.0533383)
(0.0461145 0 -0.0583273)
(0.0582836 0 -0.0580319)
(0.0689925 0 -0.0504993)
(0.0769819 0 -0.0357142)
(0.0806463 0 -0.0152628)
(0.0791394 0 0.00518442)
(0.0782949 0 0.0201757)
(0.0801331 0 0.0280024)
(0.0828914 0 0.0292514)
(0.0845217 0 0.0265513)
(0.0847614 0 0.0175161)
(0.0845171 0 0.0103154)
(0.0843116 0 0.00637265)
(0.0844282 0 0.0031978)
(0.0850303 0 -3.2519e-05)
(0.0860602 0 -0.00287948)
(0.087216 0 -0.00498145)
(0.0885979 0 -0.0060768)
(0.0909354 0 -0.00570024)
(0.0935577 0 -0.00462023)
(0.0959609 0 -0.00414429)
(0.0977013 0 -0.00464607)
(0.0994548 0 -0.0052032)
(0.101329 0 -0.00472729)
(0.103189 0 -0.00407154)
(0.105522 0 -0.00432561)
(0.10815 0 -0.00587893)
(0.110567 0 -0.00769992)
(0.113421 0 -0.00800143)
(0.116678 0 -0.00661218)
(0.119313 0 -0.00465603)
(0.121612 0 -0.0037313)
(0.12392 0 -0.00464226)
(0.126162 0 -0.0064303)
(0.128828 0 -0.00740497)
(0.131819 0 -0.00675811)
(0.134474 0 -0.00524562)
(0.136721 0 -0.00460847)
(0.138654 0 -0.00498866)
(0.140441 0 -0.00546724)
(0.142392 0 -0.005714)
(0.144529 0 -0.00579771)
(0.146767 0 -0.00586005)
(0.149318 0 -0.00642026)
(0.151591 0 -0.00702006)
(0.153609 0 -0.00596004)
(0.155537 0 -0.0036985)
(0.157027 0 -0.00194934)
(0.158329 0 -0.00145693)
(0.159566 0 -0.00171126)
(0.160772 0 -0.00144967)
(0.161165 0 -0.000287832)
(0.161119 0 0.00081222)
(0.160988 0 0.000882977)
(0.160726 0 0.000146776)
(0.160206 0 4.53277e-05)
(0.160658 0 0.000710703)
(0.159662 0 0.00226996)
(0.160588 0 0.00584848)
(0.157738 0 0.0126253)
(0.158248 0 0.0183222)
(0.158211 0 0.0309466)
(0.158421 0 0.0357202)
(0.158179 0 0.017091)
(0.143195 0 0.0137416)
(0.108545 0 0.00471152)
(0.112528 0 0.00219633)
(0.103 0 -0.000200125)
(0.101522 0 0.00029621)
(0.0995103 0 0.0101132)
(0.0955427 0 0.0139026)
(0.0901412 0 0.0133545)
(0.0878243 0 0.006948)
(0.0859489 0 0.00280104)
(0.0805053 0 0.000323775)
(0.0784001 0 -0.00111574)
(0.0775438 0 0.000163264)
(0.0761751 0 0.00100023)
(0.0766289 0 0.00271295)
(0.0760604 0 0.0039585)
(0.0756493 0 0.0068809)
(0.0751773 0 0.00919892)
(0.0737156 0 0.0141884)
(0.0763194 0 0.0246237)
(0.0714332 0 0.0264651)
(0.0695154 0 0.025477)
(0.05239 0 0.0151953)
(0.0413431 0 0.00748311)
(0.0301626 0 -0.00574594)
(0.0240801 0 -0.0121349)
(0.022785 0 -0.00636144)
(0.0216767 0 -0.000332092)
(0.022177 0 0.0031578)
(0.0257067 0 0.00192486)
(0.0293726 0 0.00158587)
(0.0294827 0 -0.000939318)
(0.0304266 0 -0.00256857)
(0.0305243 0 -0.00231707)
(0.030722 0 -0.00101626)
(0.0320926 0 -0.000143394)
(0.0327773 0 0.00299249)
(0.0352294 0 0.00509986)
(0.0345295 0 0.00367772)
(0.0356036 0 0.00226449)
(0.0302878 0 0.000661278)
(0.029214 0 -0.000396413)
(0.0273854 0 -0.00370342)
(0.028142 0 -0.00526576)
(0.0283674 0 -0.00323088)
(0.0292709 0 -0.00238836)
(0.0311646 0 -0.00179731)
(0.0325693 0 -0.00166784)
(0.0334476 0 -0.00222594)
(0.0344313 0 -0.00265654)
(0.0351965 0 -0.00243601)
(0.0360391 0 -0.00231943)
(0.0370582 0 -0.00211494)
(0.0380369 0 -0.00206712)
(0.0389662 0 -0.00202676)
(0.0398522 0 -0.00212289)
(0.0407529 0 -0.00220717)
(0.0416327 0 -0.00217855)
(0.0424885 0 -0.00212342)
(0.0433558 0 -0.00203058)
(0.0441955 0 -0.00192444)
(0.0450043 0 -0.00182881)
(0.0457752 0 -0.00174494)
(0.0464966 0 -0.00165474)
(0.0471677 0 -0.00153013)
(0.0477943 0 -0.00140517)
(0.0483771 0 -0.00129923)
(0.0489177 0 -0.00120739)
(0.0494095 0 -0.00109982)
(0.0498437 0 -0.000971234)
(0.0502237 0 -0.000826268)
(0.0505545 0 -0.000703871)
(0.0508406 0 -0.000605495)
(0.0510779 0 -0.000500017)
(0.0512602 0 -0.000371014)
(0.0513802 0 -0.000236651)
(0.0514492 0 -0.000108553)
(0.0514759 0 8.66392e-06)
(0.0514541 0 0.000131157)
(0.0513712 0 0.000258315)
(0.0512285 0 0.000384846)
(0.0510338 0 0.000500274)
(0.0507923 0 0.000620962)
(0.0504948 0 0.000765045)
(0.0501356 0 0.000906764)
(0.0497193 0 0.00102252)
(0.049255 0 0.00114276)
(0.0487303 0 0.0012992)
(0.0481367 0 0.00145883)
(0.04748 0 0.00158403)
(0.0467715 0 0.00170795)
(0.0460024 0 0.00186174)
(0.0451592 0 0.00204056)
(0.0442465 0 0.0022149)
(0.0432663 0 0.00235185)
(0.0422226 0 0.00249003)
(0.0411124 0 0.00266492)
(0.0399247 0 0.00285655)
(0.0386676 0 0.00303364)
(0.0373477 0 0.0031912)
(0.0359494 0 0.00334905)
(0.0344754 0 0.00353111)
(0.0329322 0 0.00371284)
(0.0313388 0 0.00382555)
(0.0296991 0 0.00391329)
(0.0280067 0 0.00404649)
(0.0262752 0 0.00418048)
(0.0245022 0 0.00427945)
(0.0226846 0 0.00433141)
(0.0208408 0 0.0043525)
(0.0189893 0 0.0043524)
(0.0171477 0 0.00434804)
(0.0153203 0 0.00435803)
(0.0135077 0 0.00432415)
(0.0117091 0 0.00426667)
(0.00992225 0 0.00418065)
(0.00817208 0 0.00405155)
(0.0064782 0 0.00391674)
(0.00484281 0 0.0038003)
(0.00325266 0 0.00370578)
(0.00170795 0 0.00359008)
(0.000219421 0 0.00343887)
(-0.00120008 0 0.00326652)
(-0.00255834 0 0.00310124)
(-0.00386153 0 0.00297024)
(-0.0051115 0 0.00286017)
(-0.00631084 0 0.00274583)
(-0.00745216 0 0.00262277)
(-0.00853657 0 0.00249029)
(-0.00957247 0 0.00236861)
(-0.0105679 0 0.00227752)
(-0.011525 0 0.00219719)
(-0.0124325 0 0.00208677)
(-0.013288 0 0.00195807)
(-0.0141005 0 0.00184798)
(-0.0148733 0 0.00176022)
(-0.015608 0 0.00169464)
(-0.0163104 0 0.00162681)
(-0.0169784 0 0.00153866)
(-0.0176111 0 0.00143698)
(-0.0182014 0 0.00133311)
(-0.0187533 0 0.00125395)
(-0.0192757 0 0.00119049)
(-0.0197674 0 0.00113756)
(-0.0202315 0 0.0010719)
(-0.0206679 0 0.000996756)
(-0.0210744 0 0.000920983)
(-0.0214504 0 0.00084811)
(-0.0218 0 0.000782764)
(-0.0221223 0 0.000731944)
(-0.0224212 0 0.000692149)
(-0.0227 0 0.000639454)
(-0.0229567 0 0.000576749)
(-0.0231883 0 0.00052133)
(-0.0233961 0 0.000467076)
(-0.023582 0 0.000418606)
(-0.0237502 0 0.000380916)
(-0.0239046 0 0.000349877)
(-0.0240458 0 0.000310303)
(-0.0241702 0 0.000267053)
(-0.0242769 0 0.000237315)
(-0.0243663 0 0.000204241)
(-0.0244391 0 0.000169289)
(-0.0245005 0 0.000131398)
(-0.0245518 0 9.9485e-05)
(-0.0245913 0 7.59836e-05)
(-0.0246208 0 6.54578e-05)
(-0.0246411 0 4.9608e-05)
(-0.0246514 0 1.12766e-05)
(-0.0246487 0 -2.08587e-05)
(-0.0246363 0 -3.76119e-05)
(-0.0246187 0 -5.15676e-05)
(-0.0245963 0 -6.22451e-05)
(-0.0245655 0 -7.91402e-05)
(-0.0245228 0 -0.000101266)
(-0.0244723 0 -0.000120366)
(-0.0244167 0 -0.000136367)
(-0.0243563 0 -0.000152065)
(-0.0242923 0 -0.000162964)
(-0.0242238 0 -0.000173948)
(-0.0241443 0 -0.000192686)
(-0.0240539 0 -0.000213677)
(-0.0239583 0 -0.000234726)
(-0.0238571 0 -0.000249266)
(-0.0237512 0 -0.000255415)
(-0.0236419 0 -0.00026144)
(-0.0235259 0 -0.000274227)
(-0.0234022 0 -0.000298509)
(-0.0232683 0 -0.000329813)
(-0.0231243 0 -0.000350218)
(-0.0229745 0 -0.000364807)
(-0.0228191 0 -0.000377136)
(-0.0226569 0 -0.000387002)
(-0.0224852 0 -0.000405574)
(-0.0223046 0 -0.000432262)
(-0.0221159 0 -0.000456675)
(-0.0219192 0 -0.000477993)
(-0.0217121 0 -0.00050153)
(-0.0214932 0 -0.000526915)
(-0.0212633 0 -0.000554392)
(-0.021023 0 -0.000577349)
(-0.020775 0 -0.000591393)
(-0.0205178 0 -0.000613252)
(-0.0202472 0 -0.000650185)
(-0.0199611 0 -0.000687823)
(-0.0196621 0 -0.000720088)
(-0.0193517 0 -0.000749681)
(-0.0190297 0 -0.000778655)
(-0.0186927 0 -0.000805499)
(-0.0183407 0 -0.000834668)
(-0.0179745 0 -0.000874946)
(-0.0175922 0 -0.00091708)
(-0.0171943 0 -0.000958387)
(-0.0167824 0 -0.000997338)
(-0.0163527 0 -0.00102924)
(-0.0159062 0 -0.00106107)
(-0.0154415 0 -0.00110821)
(-0.0149594 0 -0.00114923)
(-0.0144651 0 -0.00119034)
(-0.0139537 0 -0.001237)
(-0.0134208 0 -0.00127409)
(-0.0128688 0 -0.00131007)
(-0.0123002 0 -0.00135138)
(-0.0117204 0 -0.00139067)
(-0.0111271 0 -0.00143052)
(-0.0105138 0 -0.00146072)
(-0.00988533 0 -0.001491)
(-0.00924678 0 -0.00152079)
(-0.00860013 0 -0.00154918)
(-0.00794241 0 -0.00157205)
(-0.00727777 0 -0.00158155)
(-0.00660672 0 -0.00158624)
(-0.00593379 0 -0.00158876)
(-0.00526347 0 -0.00159256)
(-0.00459364 0 -0.00158996)
(-0.00392623 0 -0.00157359)
(-0.00326506 0 -0.00155061)
(-0.00261392 0 -0.00152567)
(-0.00197655 0 -0.00149575)
(-0.00135359 0 -0.00146094)
(-0.000744762 0 -0.00141784)
(-0.000151539 0 -0.00137067)
(0.000423851 0 -0.00132571)
(0.000979882 0 -0.00128175)
(0.00151573 0 -0.00123593)
(0.00203175 0 -0.00118802)
(0.00253 0 -0.00114279)
(0.00301015 0 -0.0011025)
(0.00347262 0 -0.00106324)
(0.00391658 0 -0.00102185)
(0.00434233 0 -0.000978613)
(0.00475083 0 -0.000935157)
(0.00514228 0 -0.0008958)
(0.00551713 0 -0.000859809)
(0.00587602 0 -0.00082473)
(0.00621887 0 -0.000788573)
(0.00654599 0 -0.000751627)
(0.00685804 0 -0.000714532)
(0.00715507 0 -0.000677925)
(0.00743679 0 -0.000643923)
(0.00770361 0 -0.000611388)
(0.00795607 0 -0.000579212)
(0.0081948 0 -0.000546704)
(0.00841954 0 -0.000512589)
(0.00863073 0 -0.000480641)
(0.00882944 0 -0.000451666)
(0.00901528 0 -0.000423896)
(0.00918868 0 -0.000395731)
(0.00934973 0 -0.000366259)
(0.00949909 0 -0.000337813)
(0.00963713 0 -0.000311366)
(0.00976408 0 -0.000287338)
(0.00988028 0 -0.000263068)
(0.00998608 0 -0.000237819)
(0.010082 0 -0.000214095)
(0.010168 0 -0.000192473)
(0.0102446 0 -0.000171803)
(0.0103122 0 -0.000151012)
(0.0103715 0 -0.000130869)
(0.0104227 0 -0.000112335)
(0.010466 0 -9.43659e-05)
(0.0105014 0 -7.69294e-05)
(0.0105297 0 -6.04014e-05)
(0.0105514 0 -4.38351e-05)
(0.0105666 0 -2.85605e-05)
(0.0105756 0 -1.4369e-05)
(0.0105785 0 -1.38891e-06)
(0.0105758 0 1.1231e-05)
(0.0105678 0 2.36987e-05)
(0.0105548 0 3.56646e-05)
(0.010537 0 4.68047e-05)
(0.0105148 0 5.65635e-05)
(0.0104884 0 6.53089e-05)
(0.0104584 0 7.40492e-05)
(0.0104247 0 8.2734e-05)
(0.0103874 0 9.07011e-05)
(0.0103467 0 9.79986e-05)
(0.0103031 0 0.000104821)
(0.010257 0 0.0001116)
(0.0102084 0 0.000117869)
(0.0101574 0 0.000122742)
(0.0101039 0 0.000126939)
(0.0100488 0 0.000130687)
(0.00999198 0 0.000134684)
(0.00993351 0 0.000138602)
(0.00987323 0 0.000142233)
(0.00981203 0 0.000145478)
(0.00974958 0 0.000147629)
(0.00968624 0 0.000149388)
(0.00962151 0 0.000151118)
(0.0095565 0 0.000154707)
(0.00949035 0 0.000155664)
(0.00942405 0 0.000156762)
(0.00935624 0 0.000157747)
(0.00928819 0 0.000160388)
(0.00921931 0 0.000159994)
(0.00915058 0 0.000162425)
(0.00908087 0 0.000162746)
(0.00901168 0 0.000165686)
(0.00894062 0 0.00016415)
(0.00887017 0 0.000165412)
(0.00879893 0 0.000162791)
(0.00872832 0 0.000164901)
(0.0086573 0 0.000163577)
(0.00858673 0 0.000163063)
(0.00851782 0 0.000162881)
(0.00844439 0 0.000157282)
(0.00837862 0 0.000158594)
(0.00830264 0 0.000152345)
(0.00824164 0 0.000161143)
(0.00817245 0 0.000154027)
(0.0081161 0 0.000165263)
(0.00805157 0 0.000154814)
(0.00798759 0 0.000157077)
(0.00792287 0 0.000140611)
(0.00784331 0 0.000168892)
(0.00777184 0 0.000154206)
(0.00773332 0 0.000201025)
(0.00766655 0 0.000184005)
(0.00761816 0 0.000137511)
(0.0075499 0 9.58383e-05)
(0.00736383 0 0.000151231)
(0.00726378 0 0.00013411)
(0.00730649 0 0.000415472)
(0.00723741 0 0.000418829)
(0.00746492 0 4.50507e-05)
(0.00742183 0 -9.70728e-05)
(0.00814644 0 -0.000308062)
(0.0081721 0 -0.000283505)
(0.0084244 0 -0.000619647)
(0.00823579 0 -0.00063278)
(0.00826784 0 -0.000323965)
(0.0082103 0 -0.000216019)
(0.00821629 0 -8.43028e-05)
(0.00820075 0 -2.39229e-05)
(0.00819805 0 3.2517e-05)
(0.00817678 0 6.79983e-06)
(0.00815968 0 4.16567e-05)
(0.00812155 0 1.22346e-05)
(0.00801478 0 9.62862e-05)
(0.00795017 0 7.42896e-05)
(0.00798669 0 0.000276895)
(0.00791823 0 0.000252393)
(0.00805119 0 5.60951e-05)
(0.00796839 0 -2.71036e-05)
(0.00837091 0 -8.67636e-05)
(0.0082937 0 -8.77395e-05)
(0.00839589 0 -0.000221806)
(0.00822996 0 -0.000244004)
(0.00821594 0 -3.52716e-05)
(0.00814234 0 -1.61101e-05)
(0.00807871 0 4.04255e-05)
(0.00803053 0 7.71193e-05)
(0.00789106 0 5.82192e-05)
(0.00787064 0 0.000162055)
(0.00776066 0 0.000128596)
(0.00779681 0 0.000299961)
(0.00768617 0 0.000203394)
(0.00773953 0 0.000207712)
(0.00757631 0 7.34034e-05)
(0.00716134 0 0.000205047)
(0.00699868 0 0.000137802)
(0.00707835 0 0.00110252)
(0.00697813 0 0.000824266)
(0.00813863 0 0.000181583)
(0.00813518 0 -0.000295097)
(0.0119891 0 -0.00154978)
(0.0123432 0 -0.00151437)
(0.0135388 0 -0.00405966)
(0.0136434 0 -0.00379455)
(0.0135959 0 -0.00251185)
(0.0137789 0 -0.0017002)
(0.0139785 0 -0.00120701)
(0.0141617 0 -0.000862925)
(0.0143258 0 -0.000625559)
(0.0144627 0 -0.000455904)
(0.0145707 0 -0.000322891)
(0.0146518 0 -0.000228634)
(0.0147099 0 -0.000155784)
(0.0147476 0 -9.82846e-05)
(0.0147668 0 -4.42976e-05)
(0.0147706 0 -6.34458e-06)
(0.0147613 0 2.44005e-05)
(0.0147401 0 5.89132e-05)
(0.0147084 0 8.30669e-05)
(0.0146679 0 0.000102369)
(0.0146194 0 0.000127445)
(0.0145636 0 0.000142669)
(0.0145014 0 0.000155832)
(0.0144332 0 0.000167328)
(0.014359 0 0.000186658)
(0.0142794 0 0.000197552)
(0.014195 0 0.000207055)
(0.0141065 0 0.000215906)
(0.0140137 0 0.000223727)
(0.0139176 0 0.000231232)
(0.0138188 0 0.000238305)
(0.0137169 0 0.000244615)
(0.0136123 0 0.000250746)
(0.0135055 0 0.000255473)
(0.0133967 0 0.000260195)
(0.0132864 0 0.000256139)
(0.0131745 0 0.000259467)
(0.0130612 0 0.000263245)
(0.0129462 0 0.000266563)
(0.01283 0 0.000270328)
(0.0127132 0 0.000274159)
(0.0125949 0 0.000277556)
(0.0124749 0 0.000280822)
(0.0123536 0 0.000284578)
(0.0122309 0 0.00028843)
(0.0121065 0 0.000292233)
(0.0119808 0 0.000294748)
(0.0118539 0 0.000296692)
(0.0117256 0 0.000306414)
(0.0115966 0 0.000307623)
(0.0114669 0 0.000308109)
(0.0113365 0 0.000308718)
(0.0112055 0 0.000309066)
(0.0110742 0 0.000308815)
(0.0109424 0 0.000309094)
(0.0108103 0 0.000310139)
(0.0106776 0 0.000312487)
(0.0105441 0 0.000315755)
(0.0104096 0 0.000318411)
(0.0102746 0 0.000319067)
(0.0101394 0 0.000317821)
(0.0100039 0 0.000316895)
(0.00986763 0 0.000318897)
(0.00972966 0 0.000324159)
(0.00959024 0 0.000329192)
(0.0094515 0 0.000329939)
(0.00931402 0 0.000326507)
(0.00917625 0 0.000324488)
(0.00903665 0 0.000327337)
(0.00889576 0 0.000332478)
(0.0087558 0 0.00033337)
(0.00861759 0 0.000327769)
(0.00847913 0 0.000325104)
(0.00833872 0 0.00032784)
(0.00819808 0 0.000331638)
(0.00805891 0 0.00032141)
(0.00792045 0 0.000317864)
(0.00777725 0 0.000320276)
(0.0076716 0 0.000333489)
(0.00735459 0 0.000336645)
(0.00770284 0 0.000332737)
(0.00645638 0 0.000340571)
(0.00858777 0 0.000349769)
(0.00429489 0 0.000377664)
(-0.0223975 0 -0.0151623)
(-0.0665923 0 -0.0147996)
(-0.0372999 0 -0.0140494)
(-0.046694 0 -0.0125856)