0 	0.9999588
0.006666667 	0.9999605
0.01333333 	0.9999621
0.02 	0.9999638
0.02666667 	0.9999654
0.03333333 	0.9999671
0.04 	0.9999693
0.04666667 	0.9999715
0.05333333 	0.9999737
0.06 	0.9999759
0.06666667 	0.9999782
0.07333333 	0.9999758
0.08 	0.9999734
0.08666667 	0.999971
0.09333333 	0.9999686
0.1 	0.9999662
0.1066667 	0.999959
0.1133333 	0.9999517
0.12 	0.9999444
0.1266667 	0.9999372
0.1333333 	0.9999299
0.14 	0.9999255
0.1466667 	0.9999211
0.1533333 	0.9999166
0.16 	0.9999122
0.1666667 	0.9999078
0.1733333 	0.9999075
0.18 	0.9999072
0.1866667 	0.9999069
0.1933333 	0.9999066
0.2 	0.9999063
0.2066667 	0.9999048
0.2133333 	0.9999033
0.22 	0.9999017
0.2266667 	0.9999002
0.2333333 	0.9998987
0.24 	0.999901
0.2466667 	0.9999033
0.2533333 	0.9999056
0.26 	0.9999079
0.2666667 	0.9999102
0.2733333 	0.9999189
0.28 	0.9999275
0.2866667 	0.9999362
0.2933333 	0.9999449
0.3 	0.9999536
0.3066667 	0.9999604
0.3133333 	0.9999672
0.32 	0.999974
0.3266667 	0.9999807
0.3333333 	0.9999875
0.34 	0.9999882
0.3466667 	0.9999888
0.3533333 	0.9999894
0.36 	0.9999901
0.3666667 	0.9999907
0.3733333 	0.9999858
0.38 	0.9999809
0.3866667 	0.999976
0.3933333 	0.9999711
0.4 	0.9999662
0.4066667 	0.9999618
0.4133333 	0.9999574
0.42 	0.9999531
0.4266667 	0.9999487
0.4333333 	0.9999444
0.44 	0.9999488
0.4466667 	0.9999533
0.4533333 	0.9999578
0.46 	0.9999623
0.4666667 	0.9999668
0.4733333 	0.9999725
0.48 	0.9999782
0.4866667 	0.999984
0.4933333 	0.9999897
0.5 	0.9999954
0.5066667 	0.9999961
0.5133333 	0.9999967
0.52 	0.9999974
0.5266667 	0.999998
0.5333333 	0.9999987
0.54 	0.9999974
0.5466667 	0.9999961
0.5533333 	0.9999949
0.56 	0.9999936
0.5666667 	0.9999923
0.5733333 	0.9999885
0.58 	0.9999847
0.5866667 	0.999981
0.5933333 	0.9999772
0.6 	0.9999734
0.6066667 	0.9999713
0.6133333 	0.9999693
0.62 	0.9999672
0.6266667 	0.9999651
0.6333333 	0.9999631
0.64 	0.9999668
0.6466667 	0.9999705
0.6533333 	0.9999742
0.66 	0.9999779
0.6666667 	0.9999816
0.6733333 	0.9999849
0.68 	0.9999882
0.6866667 	0.9999915
0.6933333 	0.9999947
0.7 	0.999998
0.7066667 	0.9999497
0.7133333 	0.9999013
0.72 	0.999853
0.7266667 	0.9998046
0.7333333 	0.9997563
0.74 	0.9958191
0.7466667 	0.9918818
0.7533333 	0.9879446
0.76 	0.9840073
0.7666667 	0.9800701
0.7733333 	0.9360243
0.78 	0.8919786
0.7866667 	0.8479329
0.7933333 	0.8038872
0.8 	0.7598415
0.8066667 	0.6681676
0.8133333 	0.5764937
0.82 	0.4848199
0.8266667 	0.393146
0.8333333 	0.3014721
0.84 	0.2456428
0.8466667 	0.1898134
0.8533333 	0.1339841
0.86 	0.07815475
0.8666667 	0.02232541
0.8733333 	0.017938
0.88 	0.0135506
0.8866667 	0.009163198
0.8933333 	0.004775796
0.9 	0.0003883933
0.9066667 	0.0003120718
0.9133333 	0.0002357502
0.92 	0.0001594287
0.9266667 	8.310719e-05
0.9333333 	6.785663e-06
0.94 	5.46046e-06
0.9466667 	4.135257e-06
0.9533333 	2.810054e-06
0.96 	1.484851e-06
0.9666667 	1.59648e-07
0.9733333 	1.286658e-07
0.98 	9.768364e-08
0.9866667 	6.670148e-08
0.9933333 	3.571931e-08
1 	4.73714e-09
1.006667 	3.800096e-09
1.013333 	2.863052e-09
1.02 	1.926008e-09
1.026667 	9.889643e-10
1.033333 	5.192033e-11
1.04 	4.157059e-11
1.046667 	3.122085e-11
1.053333 	2.087112e-11
1.06 	1.052138e-11
1.066667 	1.716487e-13
1.073333 	1.373882e-13
1.08 	1.031282e-13
1.086667 	6.886814e-14
1.093333 	3.460812e-14
1.1 	3.481093e-16
1.106667 	2.841692e-16
1.113333 	2.202291e-16
1.12 	1.562889e-16
1.126667 	9.234879e-17
1.133333 	2.840866e-17
1.14 	2.366513e-17
1.146667 	1.892161e-17
1.153333 	1.417808e-17
1.16 	9.434556e-18
1.166667 	4.69103e-18
1.173333 	3.85472e-18
1.18 	3.01841e-18
1.186667 	2.1821e-18
1.193333 	1.345791e-18
1.2 	5.094806e-19
1.206667 	4.163296e-19
1.213333 	3.231787e-19
1.22 	2.300277e-19
1.226667 	1.368767e-19
1.233333 	4.372577e-20
1.24 	3.531653e-20
1.246667 	2.690729e-20
1.253333 	1.849805e-20
1.26 	1.008881e-20
1.266667 	1.679568e-21
1.273333 	1.346781e-21
1.28 	1.013995e-21
1.286667 	6.81209e-22
1.293333 	3.48423e-22
1.3 	1.563689e-23
1.306667 	1.251228e-23
1.313333 	9.38768e-24
1.32 	6.263076e-24
1.326667 	3.138472e-24
1.333333 	1.386815e-26
1.34 	1.109464e-26
1.346667 	8.321141e-27
1.353333 	5.547639e-27
1.36 	2.774137e-27
1.366667 	6.343287e-31
1.373333 	5.073555e-31
1.38 	3.805211e-31
1.386667 	2.536866e-31
1.393333 	1.268521e-31
1.4 	1.768463e-35
1.406667 	1.414779e-35
1.413333 	1.061094e-35
1.42 	7.0741e-36
1.426667 	3.537257e-36
1.433333 	4.144991e-40
1.44 	3.316009e-40
1.446667 	2.487027e-40
1.453333 	1.658045e-40
1.46 	8.290626e-41
1.466667 	8.054736e-45
1.473333 	6.440499e-45
1.48 	4.830407e-45
1.486667 	3.220315e-45
1.493333 	1.610223e-45
1.5 	1.30827e-49
1.506667 	1.046619e-49
1.513333 	7.849691e-50
1.52 	5.233189e-50
1.526667 	2.616686e-50
1.533333 	1.840653e-54
1.54 	1.472527e-54
1.546667 	1.104401e-54
1.553333 	7.362751e-55
1.56 	3.681493e-55
1.566667 	2.349869e-59
1.573333 	1.878428e-59
1.58 	1.408828e-59
1.586667 	9.392279e-60
1.593333 	4.696278e-60
1.6 	2.778197e-64
1.606667 	2.222564e-64
1.613333 	1.666931e-64
1.62 	1.111297e-64
1.626667 	5.556642e-65
1.633333 	3.097942e-69
1.64 	2.47836e-69
1.646667 	1.858778e-69
1.653333 	1.239197e-69
1.66 	6.196151e-70
1.666667 	3.343232e-74
1.673333 	2.672115e-74
1.68 	2.004095e-74
1.686667 	1.336075e-74
1.693333 	6.680554e-75
1.7 	3.560227e-79
1.706667 	2.848189e-79
1.713333 	2.136151e-79
1.72 	1.424114e-79
1.726667 	7.120759e-80
1.733333 	3.812048e-84
1.74 	3.049647e-84
1.746667 	2.287245e-84
1.753333 	1.524844e-84
1.76 	7.624427e-85
1.766667 	4.145252e-89
1.773333 	3.313161e-89
1.78 	2.484882e-89
1.786667 	1.656603e-89
1.793333 	8.28324e-90
1.8 	4.508658e-94
1.806667 	3.606936e-94
1.813333 	2.705214e-94
1.82 	1.803492e-94
1.826667 	9.017699e-95
1.833333 	4.801461e-99
1.84 	3.841179e-99
1.846667 	2.880897e-99
1.853333 	1.920614e-99
1.86 	9.603321e-100
1.866667 	4.977824e-104
1.873333 	3.978428e-104
1.88 	2.983834e-104
1.886667 	1.98924e-104
1.893333 	9.946455e-105
1.9 	5.126575e-109
1.906667 	4.10127e-109
1.913333 	3.075966e-109
1.92 	2.050661e-109
1.926667 	1.025356e-109
1.933333 	5.147894e-114
1.94 	4.118325e-114
1.946667 	3.088757e-114
1.953333 	2.059188e-114
1.96 	1.02962e-114
1.966667 	5.088284e-119
1.973333 	4.066509e-119
1.98 	3.049881e-119
1.986667 	2.033254e-119
1.993333 	1.016627e-119
2 	1.185117e-131
