/*--------------------------------*- C++ -*----------------------------------*\
| =========                 |                                                 |
| \\      /  F ield         | OpenFOAM: The Open Source CFD Toolbox           |
|  \\    /   O peration     | Version:  v2006                                 |
|   \\  /    A nd           | Website:  www.openfoam.com                      |
|    \\/     M anipulation  |                                                 |
\*---------------------------------------------------------------------------*/
FoamFile
{
    version     2.0;
    format      ascii;
    class       surfaceScalarField;
    location    "3.5";
    object      alphaPhi0.water;
}
// * * * * * * * * * * * * * * * * * * * * * * * * * * * * * * * * * * * * * //

dimensions      [0 3 -1 0 0 0 0];
oriented        oriented;


internalField   nonuniform List<scalar> 
65390
(
-0.000133362
-1.68732e-06
-0.000132759
-6.04142e-07
-0.000132133
-6.27658e-07
-0.00013144
-6.92991e-07
-0.000130664
-7.75129e-07
-0.000129787
-8.67891e-07
-0.000128886
-8.62987e-07
-0.00012802
-8.37668e-07
-0.000127181
-8.41094e-07
-0.000126342
-8.65579e-07
-0.000125435
-9.48278e-07
-0.000124442
-9.9439e-07
-0.000123393
-1.04832e-06
-0.000122339
-1.05281e-06
-0.000121302
-1.0349e-06
-0.000120293
-9.98389e-07
-0.000119282
-9.93419e-07
-0.000118343
-9.38307e-07
-0.000117443
-8.99082e-07
-0.000116475
-9.78927e-07
-0.00011536
-1.12513e-06
-0.000114115
-1.24564e-06
-0.000112853
-1.25678e-06
-0.000111767
-1.06547e-06
-0.00011091
-8.38662e-07
-0.000110129
-7.80261e-07
-0.000109173
-9.82767e-07
-0.00010793
-1.25292e-06
-0.000106618
-1.31224e-06
-0.000105441
-1.17695e-06
-0.000104258
-1.1826e-06
-0.000102967
-1.28903e-06
-0.000101602
-1.34233e-06
-0.000100464
-1.11507e-06
-9.9554e-05
-9.10553e-07
-9.86427e-05
-9.45649e-07
-9.74437e-05
-1.19944e-06
-9.60199e-05
-1.42336e-06
-9.45227e-05
-1.48017e-06
-9.32427e-05
-1.25941e-06
-9.22196e-05
-1.02364e-06
-9.1167e-05
-1.09224e-06
-8.97473e-05
-1.4215e-06
-8.80032e-05
-1.74434e-06
-8.62921e-05
-1.71047e-06
-8.48413e-05
-1.40619e-06
-8.37513e-05
-1.06027e-06
-8.28087e-05
-1.01416e-06
-8.14795e-05
-1.32972e-06
-7.99048e-05
-1.57423e-06
-7.81922e-05
-1.70812e-06
-7.64052e-05
-1.77152e-06
-7.47923e-05
-1.61486e-06
-7.33997e-05
-1.40286e-06
-7.21224e-05
-1.28719e-06
-7.06739e-05
-1.44957e-06
-6.89699e-05
-1.70409e-06
-6.71765e-05
-1.79328e-06
-6.55234e-05
-1.64941e-06
-6.40133e-05
-1.50775e-06
-6.24374e-05
-1.57671e-06
-6.0592e-05
-1.84608e-06
-5.856e-05
-2.03168e-06
-5.67478e-05
-1.81124e-06
-5.52548e-05
-1.48588e-06
-5.38652e-05
-1.3744e-06
-5.23753e-05
-1.48009e-06
-5.06316e-05
-1.75978e-06
-4.87722e-05
-1.85825e-06
-4.70899e-05
-1.68103e-06
-4.54423e-05
-1.64475e-06
-4.36243e-05
-1.81695e-06
-4.14706e-05
-2.15206e-06
-3.87929e-05
-2.67656e-06
-3.57127e-05
-3.07448e-06
-3.20764e-05
-3.62716e-06
-2.74821e-05
-4.59425e-06
-2.08865e-05
-6.596e-06
-1.55786e-05
-5.30849e-06
-1.40845e-05
-1.49401e-06
-1.36832e-05
-4.01461e-07
-1.46933e-05
1.0114e-06
-1.52868e-05
5.9631e-07
-1.61784e-05
8.91455e-07
-1.68112e-05
6.31558e-07
-1.66807e-05
-1.2796e-07
-1.65668e-05
-1.13962e-07
-1.61446e-05
-4.24683e-07
-1.56429e-05
-5.03128e-07
-1.51457e-05
-4.97006e-07
-1.47359e-05
-4.09764e-07
-1.43746e-05
-3.5988e-07
-1.41231e-05
-2.49203e-07
-1.39178e-05
-2.05336e-07
-1.37951e-05
-1.23846e-07
-1.37044e-05
-9.01885e-08
-1.39457e-05
2.43244e-07
-1.44317e-05
4.86062e-07
-1.55575e-05
1.1258e-06
-1.70534e-05
1.49436e-06
-1.81379e-05
1.08443e-06
-1.85693e-05
4.31493e-07
-1.82627e-05
-3.06288e-07
-1.78885e-05
-3.7409e-07
-1.72292e-05
-6.58119e-07
-1.65496e-05
-6.79445e-07
-1.60972e-05
-4.52089e-07
-1.57999e-05
-2.97323e-07
-1.5382e-05
-4.19535e-07
-1.47679e-05
-6.14253e-07
-1.42001e-05
-5.67995e-07
-1.3546e-05
-6.54389e-07
-1.2896e-05
-6.48238e-07
-1.2288e-05
-6.07925e-07
-1.17807e-05
-5.09811e-07
-1.13194e-05
-4.61493e-07
-1.10805e-05
-2.39047e-07
-1.0959e-05
-1.21584e-07
-1.07007e-05
-2.58255e-07
-1.02449e-05
-4.55854e-07
-9.68081e-06
-5.64795e-07
-9.14908e-06
-5.31971e-07
-8.47153e-06
-6.77779e-07
-7.76667e-06
-7.05241e-07
-7.15675e-06
-6.09271e-07
-6.53712e-06
-6.19635e-07
-5.90523e-06
-6.32464e-07
-5.2808e-06
-6.24409e-07
-4.63396e-06
-6.46841e-07
-3.98555e-06
-6.48824e-07
-3.35616e-06
-6.29502e-07
-2.72287e-06
-6.33461e-07
-2.10148e-06
-6.21448e-07
-1.4935e-06
-6.08004e-07
-9.00164e-07
-5.93245e-07
-3.11309e-07
-5.88747e-07
2.74644e-07
-5.85841e-07
8.47158e-07
-5.72399e-07
1.4029e-06
-5.55595e-07
1.94883e-06
-5.45737e-07
2.48183e-06
-5.3279e-07
2.99393e-06
-5.11818e-07
3.48868e-06
-4.94352e-07
3.9757e-06
-4.8622e-07
4.45162e-06
-4.75608e-07
4.90887e-06
-4.56766e-07
5.34916e-06
-4.39927e-07
5.77588e-06
-4.26062e-07
6.19363e-06
-4.16653e-07
6.60175e-06
-4.07816e-07
6.99503e-06
-3.92988e-07
7.37016e-06
-3.75063e-07
7.73014e-06
-3.59557e-07
8.08208e-06
-3.5106e-07
8.42759e-06
-3.45318e-07
8.76325e-06
-3.35566e-07
9.07927e-06
-3.17111e-07
9.38315e-06
-3.03312e-07
9.67923e-06
-2.95663e-07
9.96737e-06
-2.88348e-07
1.02447e-05
-2.77474e-07
1.05045e-05
-2.6026e-07
1.07547e-05
-2.50111e-07
1.09985e-05
-2.4399e-07
1.12316e-05
-2.33731e-07
1.1449e-05
-2.17951e-07
1.16546e-05
-2.05563e-07
1.18532e-05
-1.98693e-07
1.20432e-05
-1.90114e-07
1.22191e-05
-1.7631e-07
1.23804e-05
-1.61425e-07
1.25334e-05
-1.52615e-07
1.26801e-05
-1.46724e-07
1.28158e-05
-1.35698e-07
1.29366e-05
-1.21375e-07
1.30475e-05
-1.10313e-07
1.31502e-05
-1.01926e-07
1.32441e-05
-9.38218e-08
1.33286e-05
-8.44888e-08
1.34021e-05
-7.35633e-08
1.34646e-05
-6.2383e-08
1.3519e-05
-5.37051e-08
1.35659e-05
-4.68017e-08
1.36045e-05
-3.8521e-08
1.36306e-05
-2.65389e-08
1.36484e-05
-1.73458e-08
1.36624e-05
-1.35211e-08
1.36684e-05
-6.59984e-09
1.36643e-05
3.91643e-09
1.36514e-05
1.28605e-08
1.36323e-05
1.96767e-08
1.36073e-05
2.4965e-08
1.35749e-05
3.24478e-08
1.35348e-05
4.00422e-08
1.34883e-05
4.61297e-08
1.34362e-05
5.21392e-08
1.33792e-05
5.73194e-08
1.33142e-05
6.49591e-08
1.3244e-05
7.02856e-08
1.31712e-05
7.27248e-08
1.30945e-05
7.66888e-08
1.3011e-05
8.31836e-08
1.29204e-05
9.07431e-08
1.28258e-05
9.47297e-08
1.27293e-05
9.67836e-08
1.26308e-05
9.85376e-08
1.25292e-05
1.01519e-07
1.24217e-05
1.07463e-07
1.23096e-05
1.11989e-07
1.21963e-05
1.13307e-07
1.20829e-05
1.1353e-07
1.19654e-05
1.17387e-07
1.18437e-05
1.21609e-07
1.17204e-05
1.23417e-07
1.15962e-05
1.24214e-07
1.14735e-05
1.22546e-07
1.13484e-05
1.25062e-07
1.12186e-05
1.2909e-07
1.10881e-05
1.31168e-07
1.09548e-05
1.3343e-07
1.08235e-05
1.31171e-07
1.06944e-05
1.29054e-07
1.05636e-05
1.30742e-07
1.04289e-05
1.34295e-07
1.02943e-05
1.34929e-07
1.01598e-05
1.34494e-07
1.00242e-05
1.35509e-07
9.88922e-06
1.34977e-07
9.75725e-06
1.31975e-07
9.62404e-06
1.3307e-07
9.48724e-06
1.36636e-07
9.35155e-06
1.36009e-07
9.21574e-06
1.35773e-07
9.08149e-06
1.34219e-07
8.95084e-06
1.30602e-07
8.81727e-06
1.33644e-07
8.68169e-06
1.35643e-07
8.5465e-06
1.35243e-07
8.41357e-06
1.3293e-07
8.28019e-06
1.33376e-07
8.14656e-06
1.33634e-07
8.01364e-06
1.32861e-07
7.88208e-06
1.31589e-07
7.74978e-06
1.32287e-07
7.61782e-06
1.31951e-07
7.48835e-06
1.29471e-07
7.35468e-06
1.33678e-07
7.22198e-06
1.3274e-07
7.09348e-06
1.28519e-07
6.96412e-06
1.29342e-07
6.83353e-06
1.30607e-07
6.70337e-06
1.30181e-07
6.57314e-06
1.3022e-07
6.44501e-06
1.28141e-07
6.31513e-06
1.29899e-07
6.18523e-06
1.29899e-07
6.05851e-06
1.26709e-07
5.93198e-06
1.26523e-07
5.80331e-06
1.28648e-07
5.67484e-06
1.2845e-07
5.54801e-06
1.26833e-07
5.42392e-06
1.24076e-07
5.29804e-06
1.25861e-07
5.17095e-06
1.27069e-07
5.04447e-06
1.26456e-07
4.91838e-06
1.26073e-07
4.79262e-06
1.25788e-07
4.66988e-06
1.22727e-07
4.5484e-06
1.21443e-07
4.42592e-06
1.2244e-07
4.30224e-06
1.23686e-07
4.17831e-06
1.23938e-07
4.05516e-06
1.23142e-07
3.93312e-06
1.22025e-07
3.8122e-06
1.20901e-07
3.69246e-06
1.19729e-07
3.57223e-06
1.20217e-07
3.45233e-06
1.19886e-07
3.33329e-06
1.19035e-07
3.21539e-06
1.1789e-07
3.09644e-06
1.18936e-07
2.97754e-06
1.18916e-07
2.86084e-06
1.1669e-07
2.74585e-06
1.14988e-07
2.63223e-06
1.13612e-07
2.51893e-06
1.13298e-07
2.40518e-06
1.13756e-07
2.29177e-06
1.13404e-07
2.17977e-06
1.11996e-07
2.06902e-06
1.10754e-07
1.96065e-06
1.08362e-07
1.8535e-06
1.07131e-07
1.746e-06
1.07505e-07
1.6392e-06
1.06797e-07
1.5339e-06
1.05294e-07
1.42974e-06
1.04156e-07
1.32732e-06
1.02415e-07
1.22641e-06
1.00907e-07
1.1262e-06
1.00205e-07
1.0274e-06
9.87998e-08
9.30033e-07
9.73606e-08
8.34299e-07
9.57319e-08
7.40588e-07
9.37097e-08
6.47998e-07
9.25876e-08
5.57046e-07
9.09507e-08
4.67841e-07
8.92035e-08
3.80999e-07
8.6841e-08
2.96335e-07
8.46601e-08
2.12503e-07
8.38294e-08
1.30726e-07
8.17736e-08
5.09796e-08
7.97432e-08
-2.64321e-08
7.74087e-08
-1.01718e-07
7.52827e-08
-1.75256e-07
7.35348e-08
-2.46844e-07
7.15862e-08
-3.16388e-07
6.9543e-08
-3.83708e-07
6.73194e-08
-4.4906e-07
6.5349e-08
-5.12727e-07
6.36674e-08
-5.74433e-07
6.17074e-08
-6.34112e-07
5.96816e-08
-6.91502e-07
5.73922e-08
-7.46877e-07
5.53732e-08
-8.00889e-07
5.40161e-08
-8.52917e-07
5.20355e-08
-9.02766e-07
4.98536e-08
-9.50383e-07
4.76208e-08
-9.96544e-07
4.61627e-08
-1.04102e-06
4.44831e-08
-1.08363e-06
4.26118e-08
-1.12443e-06
4.08128e-08
-1.16334e-06
3.891e-08
-1.20033e-06
3.69959e-08
-1.23555e-06
3.52234e-08
-1.26905e-06
3.35099e-08
-1.3009e-06
3.18551e-08
-1.33112e-06
3.02305e-08
-1.35971e-06
2.8593e-08
-1.38661e-06
2.69076e-08
-1.41184e-06
2.52358e-08
-1.4357e-06
2.38632e-08
-1.45822e-06
2.25274e-08
-1.47932e-06
2.11062e-08
-1.49896e-06
1.96516e-08
-1.5171e-06
1.81505e-08
-1.53379e-06
1.66909e-08
-1.54928e-06
1.54925e-08
-1.56358e-06
1.43091e-08
-1.57668e-06
1.31059e-08
-1.58841e-06
1.17296e-08
-1.59888e-06
1.04731e-08
-1.60844e-06
9.56731e-09
-1.61698e-06
8.5402e-09
-1.62445e-06
7.48099e-09
-1.63084e-06
6.38768e-09
-1.63623e-06
5.39577e-09
-1.64082e-06
4.60156e-09
-1.64454e-06
3.71869e-09
-1.64732e-06
2.79002e-09
-1.64919e-06
1.86483e-09
-1.65034e-06
1.15894e-09
-1.6508e-06
4.56722e-10
-1.65051e-06
-2.83908e-10
-1.64955e-06
-9.59064e-10
-1.64786e-06
-1.69106e-09
-1.64551e-06
-2.34768e-09
-1.64269e-06
-2.81675e-09
-1.6393e-06
-3.38799e-09
-1.63537e-06
-3.92774e-09
-1.63091e-06
-4.46434e-09
-1.62584e-06
-5.06632e-09
-1.62029e-06
-5.55093e-09
-1.61431e-06
-5.98222e-09
-1.60791e-06
-6.39466e-09
-1.60107e-06
-6.84301e-09
-1.59382e-06
-7.24688e-09
-1.5863e-06
-7.52268e-09
-1.57846e-06
-7.84267e-09
-1.57032e-06
-8.13994e-09
-1.56188e-06
-8.44016e-09
-1.55308e-06
-8.79949e-09
-1.54398e-06
-9.09811e-09
-1.53468e-06
-9.29956e-09
-1.52521e-06
-9.47088e-09
-1.51558e-06
-9.62886e-09
-1.50576e-06
-9.8222e-09
-1.49577e-06
-9.99786e-09
-1.48559e-06
-1.01795e-08
-1.47524e-06
-1.03496e-08
-1.46479e-06
-1.0447e-08
-1.45421e-06
-1.05815e-08
-1.44341e-06
-1.08033e-08
-1.43243e-06
-1.0984e-08
-1.42148e-06
-1.09501e-08
-1.4104e-06
-1.10803e-08
-1.39918e-06
-1.1216e-08
-1.38793e-06
-1.12495e-08
-1.37661e-06
-1.13244e-08
-1.36517e-06
-1.14389e-08
-1.35361e-06
-1.15583e-08
-1.34198e-06
-1.16328e-08
-1.33028e-06
-1.17033e-08
-1.31855e-06
-1.17291e-08
-1.30683e-06
-1.17182e-08
-1.29516e-06
-1.16715e-08
-1.28346e-06
-1.16953e-08
-1.27189e-06
-1.15759e-08
-1.26023e-06
-1.16579e-08
-1.24867e-06
-1.15684e-08
-1.23716e-06
-1.15079e-08
-1.22569e-06
-1.14661e-08
-1.21421e-06
-1.1479e-08
-1.20262e-06
-1.15956e-08
-1.19123e-06
-1.13952e-08
-1.17965e-06
-1.1575e-08
-1.1677e-06
-1.19509e-08
-1.15591e-06
-1.17884e-08
-1.14324e-06
-1.26721e-08
-1.13051e-06
-1.27318e-08
-1.11955e-06
-1.09612e-08
-1.10774e-06
-1.18077e-08
-1.09534e-06
-1.24047e-08
-1.08424e-06
-1.11001e-08
-1.06491e-06
-1.93221e-08
-1.04634e-06
-1.85764e-08
-1.04031e-06
-6.02834e-09
-1.02632e-06
-1.39917e-08
-1.02279e-06
-3.52816e-09
-1.03242e-06
9.62258e-09
-1.06568e-06
3.32594e-08
-1.09924e-06
3.35676e-08
-1.1093e-06
1.00518e-08
-1.11738e-06
8.07879e-09
-1.11727e-06
-1.12757e-10
-1.11529e-06
-1.98037e-09
-1.11038e-06
-4.91134e-09
-1.1051e-06
-5.28304e-09
-1.09839e-06
-6.71319e-09
-1.091e-06
-7.39609e-09
-1.08187e-06
-9.13089e-09
-1.07309e-06
-8.78696e-09
-1.05988e-06
-1.32077e-08
-1.04656e-06
-1.33267e-08
-1.03832e-06
-8.25026e-09
-1.02617e-06
-1.21542e-08
-1.01781e-06
-8.37268e-09
-1.01477e-06
-3.04747e-09
-1.02078e-06
6.00268e-09
-1.0267e-06
5.9135e-09
-1.02256e-06
-4.15704e-09
-1.0176e-06
-4.97025e-09
-1.01044e-06
-7.17889e-09
-1.00161e-06
-8.8463e-09
-9.93477e-07
-8.14635e-09
-9.83329e-07
-1.01655e-08
-9.73759e-07
-9.5897e-09
-9.6013e-07
-1.36492e-08
-9.46387e-07
-1.3765e-08
-9.36195e-07
-1.02168e-08
-9.23239e-07
-1.29809e-08
-9.11141e-07
-1.21255e-08
-9.03156e-07
-8.01301e-09
-8.65033e-07
-3.8151e-08
-8.31652e-07
-3.34059e-08
-8.29729e-07
-1.93623e-09
-7.99948e-07
-2.97624e-08
-8.41002e-07
4.11489e-08
-9.0241e-07
6.16685e-08
-1.12713e-06
2.25112e-07
-1.35681e-06
2.30423e-07
-1.50569e-06
1.50153e-07
-1.60615e-06
1.01643e-07
-1.67426e-06
6.91745e-08
-1.72201e-06
4.87028e-08
-1.7563e-06
3.51666e-08
-1.78153e-06
2.60115e-08
-1.80035e-06
1.9542e-08
-1.81446e-06
1.47526e-08
-1.82497e-06
1.10997e-08
-1.83267e-06
8.23608e-09
-1.83803e-06
5.8576e-09
-1.8414e-06
3.81591e-09
-1.84314e-06
2.1365e-09
-1.84346e-06
6.97721e-10
-1.84254e-06
-5.92452e-10
-1.84076e-06
-1.47284e-09
-1.83804e-06
-2.43633e-09
-1.83444e-06
-3.35267e-09
-1.83002e-06
-4.18836e-09
-1.82489e-06
-4.92007e-09
-1.81915e-06
-5.54892e-09
-1.81289e-06
-6.08864e-09
-1.80618e-06
-6.56268e-09
-1.79904e-06
-6.99718e-09
-1.79143e-06
-7.48162e-09
-1.78341e-06
-7.9108e-09
-1.77498e-06
-8.32333e-09
-1.76613e-06
-8.75615e-09
-1.75685e-06
-9.20369e-09
-1.74711e-06
-9.66483e-09
-1.7369e-06
-1.01483e-08
-1.7262e-06
-1.06383e-08
-1.71504e-06
-1.11076e-08
-1.70347e-06
-1.15297e-08
-1.69155e-06
-1.18774e-08
-1.67936e-06
-1.21505e-08
-1.66702e-06
-1.23079e-08
-1.65454e-06
-1.24515e-08
-1.64192e-06
-1.25913e-08
-1.62925e-06
-1.26505e-08
-1.61657e-06
-1.26588e-08
-1.60393e-06
-1.26186e-08
-1.59137e-06
-1.25395e-08
-1.5789e-06
-1.24528e-08
-1.56649e-06
-1.23988e-08
-1.55406e-06
-1.24099e-08
-1.54155e-06
-1.24955e-08
-1.52889e-06
-1.26463e-08
-1.51604e-06
-1.28467e-08
-1.50295e-06
-1.30789e-08
-1.48963e-06
-1.33048e-08
-1.47617e-06
-1.34476e-08
-1.46275e-06
-1.34198e-08
-1.44953e-06
-1.32117e-08
-1.43655e-06
-1.29668e-08
-1.42365e-06
-1.28939e-08
-1.41051e-06
-1.31299e-08
-1.39699e-06
-1.35128e-08
-1.38338e-06
-1.361e-08
-1.37018e-06
-1.31956e-08
-1.35753e-06
-1.26479e-08
-1.34534e-06
-1.21799e-08
-1.33288e-06
-1.2459e-08
-1.31982e-06
-1.30532e-08
-1.30667e-06
-1.31513e-08
-1.29402e-06
-1.26479e-08
-1.28186e-06
-1.21622e-08
-1.26931e-06
-1.25501e-08
-1.25589e-06
-1.34197e-08
-1.2423e-06
-1.35887e-08
-1.22913e-06
-1.31761e-08
-1.21597e-06
-1.31627e-08
-1.20204e-06
-1.39358e-08
-1.18791e-06
-1.41291e-08
-1.1745e-06
-1.34088e-08
-1.1617e-06
-1.28119e-08
-1.14866e-06
-1.30353e-08
-1.13593e-06
-1.27369e-08
-1.12316e-06
-1.27736e-08
-8.75605e-09
-0.000133424
-3.40476e-06
-0.00013283
-1.19821e-06
-0.000132219
-1.23902e-06
-0.000131574
-1.33856e-06
-0.000130867
-1.48327e-06
-0.000130057
-1.67907e-06
-0.000129216
-1.70534e-06
-0.000128282
-1.77354e-06
-0.000127291
-1.83372e-06
-0.000126302
-1.85656e-06
-0.000125327
-1.92557e-06
-0.000124402
-1.92024e-06
-0.00012347
-1.98196e-06
-0.000122541
-1.98212e-06
-0.000121599
-1.9781e-06
-0.000120644
-1.95362e-06
-0.000119668
-1.96995e-06
-0.000118679
-1.92876e-06
-0.00011766
-1.91879e-06
-0.000116632
-2.00663e-06
-0.000115588
-2.16858e-06
-0.00011454
-2.29285e-06
-0.000113493
-2.30325e-06
-0.000112447
-2.09635e-06
-0.000111351
-1.90597e-06
-0.000110255
-1.87754e-06
-0.0001091
-2.13631e-06
-0.000107946
-2.44804e-06
-0.000106763
-2.49992e-06
-0.000105673
-2.26667e-06
-0.000104613
-2.24138e-06
-0.000103469
-2.40978e-06
-0.000102129
-2.64013e-06
-0.000100656
-2.58835e-06
-9.93151e-05
-2.25103e-06
-9.81779e-05
-2.09396e-06
-9.72764e-05
-2.13903e-06
-9.63308e-05
-2.36942e-06
-9.50297e-05
-2.73183e-06
-9.35241e-05
-2.76551e-06
-9.20108e-05
-2.53649e-06
-9.06371e-05
-2.4664e-06
-8.94311e-05
-2.66764e-06
-8.8111e-05
-3.0717e-06
-8.65668e-05
-3.24809e-06
-8.49361e-05
-2.98063e-06
-8.34592e-05
-2.53711e-06
-8.20989e-05
-2.37434e-06
-8.08095e-05
-2.62359e-06
-7.93954e-05
-3.04224e-06
-7.77475e-05
-3.35925e-06
-7.6086e-05
-3.43068e-06
-7.44529e-05
-3.23096e-06
-7.29514e-05
-2.891e-06
-7.1581e-05
-2.65697e-06
-7.02164e-05
-2.83818e-06
-6.86725e-05
-3.25401e-06
-6.6995e-05
-3.47077e-06
-6.5399e-05
-3.2326e-06
-6.39073e-05
-2.98849e-06
-6.23722e-05
-3.13353e-06
-6.06502e-05
-3.57557e-06
-5.87762e-05
-3.90598e-06
-5.70444e-05
-3.52952e-06
-5.55219e-05
-2.99372e-06
-5.39699e-05
-2.92586e-06
-5.21806e-05
-3.27136e-06
-5.03201e-05
-3.64988e-06
-4.86043e-05
-3.57285e-06
-4.70846e-05
-3.19204e-06
-4.54991e-05
-3.22808e-06
-4.38809e-05
-3.44656e-06
-4.20569e-05
-3.99784e-06
-4.0135e-05
-4.60138e-06
-3.82635e-05
-4.94876e-06
-3.66723e-05
-5.21108e-06
-3.55475e-05
-5.71839e-06
-3.52351e-05
-6.90847e-06
-3.34915e-05
-7.05164e-06
-2.86958e-05
-6.30249e-06
-2.20385e-05
-7.06023e-06
-1.57946e-05
-5.23062e-06
-1.36108e-05
-1.58751e-06
-1.23803e-05
-3.39737e-07
-1.26272e-05
8.78012e-07
-1.305e-05
2.99105e-07
-1.38728e-05
7.08868e-07
-1.45916e-05
2.91821e-07
-1.51379e-05
4.07703e-08
-1.49982e-05
-6.37512e-07
-1.47635e-05
-6.44482e-07
-1.43854e-05
-7.37583e-07
-1.39521e-05
-6.79962e-07
-1.35623e-05
-5.95054e-07
-1.31775e-05
-5.08644e-07
-1.28441e-05
-4.25729e-07
-1.25401e-05
-6.15712e-08
-1.22969e-05
2.4348e-07
-1.1895e-05
7.24004e-07
-1.20459e-05
1.64507e-06
-1.26173e-05
1.65473e-06
-1.37179e-05
1.53093e-06
-1.52538e-05
1.22965e-06
-1.6513e-05
8.86797e-07
-1.728e-05
1.10095e-07
-1.73073e-05
-6.52026e-07
-1.69031e-05
-8.56241e-07
-1.63607e-05
-8.39679e-07
-1.55111e-05
-1.27067e-06
-1.45701e-05
-1.55539e-06
-1.39703e-05
-1.16729e-06
-1.3437e-05
-1.18531e-06
-1.28626e-05
-1.22262e-06
-1.23203e-05
-1.15022e-06
-1.16827e-05
-1.14747e-06
-1.10198e-05
-1.1262e-06
-1.03397e-05
-9.20714e-07
-9.77261e-06
-6.88709e-07
-9.27388e-06
-7.56156e-07
-9.06689e-06
-6.6276e-07
-9.02489e-06
-6.0752e-07
-8.78824e-06
-7.69141e-07
-8.38736e-06
-1.07859e-06
-7.89564e-06
-1.19586e-06
-7.35897e-06
-1.14596e-06
-6.64782e-06
-1.33077e-06
-5.89902e-06
-1.38128e-06
-5.24989e-06
-1.27404e-06
-4.61167e-06
-1.28511e-06
-3.99257e-06
-1.26749e-06
-3.3914e-06
-1.23064e-06
-2.76734e-06
-1.25757e-06
-2.13824e-06
-1.25042e-06
-1.52336e-06
-1.22249e-06
-9.21649e-07
-1.19485e-06
-3.2913e-07
-1.1813e-06
2.5356e-07
-1.16847e-06
8.17152e-07
-1.1358e-06
1.37257e-06
-1.11073e-06
1.92079e-06
-1.09366e-06
2.45556e-06
-1.06735e-06
2.97184e-06
-1.02787e-06
3.47399e-06
-9.96198e-07
3.96534e-06
-9.76676e-07
4.44078e-06
-9.50743e-07
4.89718e-06
-9.13228e-07
5.34002e-06
-8.82219e-07
5.77409e-06
-8.59727e-07
6.19599e-06
-8.37641e-07
6.60254e-06
-8.13749e-07
6.99221e-06
-7.82671e-07
7.36806e-06
-7.51295e-07
7.73401e-06
-7.25394e-07
8.09083e-06
-7.07318e-07
8.43691e-06
-6.9062e-07
8.76869e-06
-6.67356e-07
9.0841e-06
-6.33738e-07
9.39111e-06
-6.10229e-07
9.68982e-06
-5.94443e-07
9.97915e-06
-5.76913e-07
1.02548e-05
-5.53237e-07
1.05168e-05
-5.22802e-07
1.07686e-05
-5.01511e-07
1.10114e-05
-4.86574e-07
1.12442e-05
-4.66307e-07
1.14624e-05
-4.37435e-07
1.16698e-05
-4.12226e-07
1.18682e-05
-3.96275e-07
1.20571e-05
-3.79132e-07
1.22329e-05
-3.52367e-07
1.23958e-05
-3.24613e-07
1.25497e-05
-3.0572e-07
1.26961e-05
-2.92279e-07
1.283e-05
-2.69518e-07
1.29512e-05
-2.43002e-07
1.30632e-05
-2.22399e-07
1.31669e-05
-2.04722e-07
1.32598e-05
-1.86005e-07
1.3342e-05
-1.66762e-07
1.34144e-05
-1.46582e-07
1.34794e-05
-1.27184e-07
1.35351e-05
-1.09197e-07
1.35821e-05
-9.26683e-08
1.36178e-05
-7.41629e-08
1.36435e-05
-5.2934e-08
1.36624e-05
-3.58318e-08
1.36759e-05
-2.58934e-08
1.36804e-05
-1.15808e-08
1.36765e-05
7.42426e-09
1.36652e-05
2.41967e-08
1.36457e-05
3.92113e-08
1.36194e-05
5.20167e-08
1.35843e-05
6.72871e-08
1.3543e-05
8.08281e-08
1.34974e-05
9.17202e-08
1.34469e-05
1.02615e-07
1.33896e-05
1.14792e-07
1.33237e-05
1.31069e-07
1.32529e-05
1.41348e-07
1.3179e-05
1.46715e-07
1.3101e-05
1.54685e-07
1.30169e-05
1.66273e-07
1.29263e-05
1.81383e-07
1.28318e-05
1.89197e-07
1.27362e-05
1.92939e-07
1.26373e-05
1.97629e-07
1.25338e-05
2.04992e-07
1.24241e-05
2.16518e-07
1.23126e-05
2.23395e-07
1.22008e-05
2.2543e-07
1.20859e-05
2.28339e-07
1.19666e-05
2.36749e-07
1.18446e-05
2.42973e-07
1.17224e-05
2.45445e-07
1.15985e-05
2.48338e-07
1.14741e-05
2.47183e-07
1.13476e-05
2.5141e-07
1.12182e-05
2.5738e-07
1.10881e-05
2.61543e-07
1.0956e-05
2.65923e-07
1.08248e-05
2.6255e-07
1.06932e-05
2.60666e-07
1.0561e-05
2.62932e-07
1.04271e-05
2.67653e-07
1.02924e-05
2.69673e-07
1.0158e-05
2.68876e-07
1.00234e-05
2.70049e-07
9.88859e-06
2.70083e-07
9.7547e-06
2.66247e-07
9.62042e-06
2.67037e-07
9.48467e-06
2.72212e-07
9.34904e-06
2.71668e-07
9.2142e-06
2.70642e-07
9.07989e-06
2.68817e-07
8.94714e-06
2.63483e-07
8.81465e-06
2.66032e-07
8.68114e-06
2.69116e-07
8.54516e-06
2.71261e-07
8.40971e-06
2.68479e-07
8.27506e-06
2.67819e-07
8.14255e-06
2.66133e-07
8.01112e-06
2.64301e-07
7.87859e-06
2.64164e-07
7.74649e-06
2.644e-07
7.61545e-06
2.62979e-07
7.48489e-06
2.60122e-07
7.35156e-06
2.66868e-07
7.21894e-06
2.65474e-07
7.08901e-06
2.58428e-07
6.95945e-06
2.58747e-07
6.82938e-06
2.60675e-07
6.70002e-06
2.59547e-07
6.56986e-06
2.60377e-07
6.44082e-06
2.57115e-07
6.3127e-06
2.5801e-07
6.18469e-06
2.57919e-07
6.05653e-06
2.54863e-07
5.92704e-06
2.55995e-07
5.79761e-06
2.5794e-07
5.6712e-06
2.54765e-07
5.54575e-06
2.52271e-07
5.42024e-06
2.49572e-07
5.29363e-06
2.5231e-07
5.16698e-06
2.53605e-07
5.04028e-06
2.53192e-07
4.91472e-06
2.51687e-07
4.78992e-06
2.50473e-07
4.66667e-06
2.45932e-07
4.54389e-06
2.44186e-07
4.4206e-06
2.45609e-07
4.29704e-06
2.47138e-07
4.17383e-06
2.47133e-07
4.05143e-06
2.45529e-07
3.92939e-06
2.43982e-07
3.80725e-06
2.43021e-07
3.68633e-06
2.40544e-07
3.56642e-06
2.40065e-07
3.44753e-06
2.38753e-07
3.32884e-06
2.37715e-07
3.2105e-06
2.36137e-07
3.09232e-06
2.37049e-07
2.9738e-06
2.37426e-07
2.85752e-06
2.32959e-07
2.74254e-06
2.29913e-07
2.62784e-06
2.2828e-07
2.5137e-06
2.27369e-07
2.40027e-06
2.27119e-07
2.28746e-06
2.26202e-07
2.17618e-06
2.23265e-07
2.06575e-06
2.21137e-07
1.95645e-06
2.17612e-07
1.84834e-06
2.15211e-07
1.74083e-06
2.1493e-07
1.63441e-06
2.13197e-07
1.52965e-06
2.10029e-07
1.42588e-06
2.07893e-07
1.323e-06
2.05252e-07
1.22143e-06
2.02441e-07
1.1214e-06
2.00184e-07
1.02301e-06
1.97164e-07
9.26055e-07
1.94298e-07
8.30562e-07
1.91202e-07
7.36445e-07
1.87787e-07
6.43834e-07
1.85173e-07
5.53458e-07
1.81303e-07
4.64668e-07
1.77971e-07
3.77549e-07
1.73933e-07
2.92399e-07
1.69787e-07
2.08673e-07
1.67529e-07
1.27238e-07
1.63186e-07
4.773e-08
1.59228e-07
-2.98395e-08
1.54956e-07
-1.0553e-07
1.50953e-07
-1.79115e-07
1.471e-07
-2.50635e-07
1.43087e-07
-3.20169e-07
1.39061e-07
-3.87748e-07
1.34879e-07
-4.53436e-07
1.31024e-07
-5.17049e-07
1.27267e-07
-5.78581e-07
1.23227e-07
-6.38148e-07
1.19239e-07
-6.95781e-07
1.15012e-07
-7.51536e-07
1.11119e-07
-8.05541e-07
1.08016e-07
-8.57339e-07
1.03825e-07
-9.07182e-07
9.96909e-08
-9.5517e-07
9.56012e-08
-1.00134e-06
9.23277e-08
-1.04568e-06
8.88272e-08
-1.08817e-06
8.51013e-08
-1.12877e-06
8.14112e-08
-1.16757e-06
7.77071e-08
-1.20461e-06
7.40335e-08
-1.23987e-06
7.04766e-08
-1.27337e-06
6.70024e-08
-1.30518e-06
6.36645e-08
-1.33535e-06
6.0402e-08
-1.36388e-06
5.7125e-08
-1.39082e-06
5.38421e-08
-1.4162e-06
5.06054e-08
-1.44002e-06
4.76889e-08
-1.46238e-06
4.4891e-08
-1.48334e-06
4.20608e-08
-1.50283e-06
3.91419e-08
-1.52091e-06
3.62272e-08
-1.53763e-06
3.34129e-08
-1.55307e-06
3.09353e-08
-1.56724e-06
2.8473e-08
-1.58016e-06
2.60297e-08
-1.59188e-06
2.34444e-08
-1.60246e-06
2.10548e-08
-1.61198e-06
1.90852e-08
-1.62036e-06
1.69245e-08
-1.62771e-06
1.48241e-08
-1.63406e-06
1.27363e-08
-1.63944e-06
1.07709e-08
-1.64388e-06
9.04176e-09
-1.64738e-06
7.22037e-09
-1.65008e-06
5.48782e-09
-1.65206e-06
3.8343e-09
-1.65327e-06
2.36592e-09
-1.65357e-06
7.60871e-10
-1.65314e-06
-7.15085e-10
-1.65207e-06
-2.02842e-09
-1.65033e-06
-3.4394e-09
-1.64801e-06
-4.67427e-09
-1.64513e-06
-5.70284e-09
-1.64158e-06
-6.93493e-09
-1.6375e-06
-8.00901e-09
-1.63291e-06
-9.0553e-09
-1.62779e-06
-1.01879e-08
-1.6222e-06
-1.11488e-08
-1.61616e-06
-1.20266e-08
-1.60973e-06
-1.28342e-08
-1.60289e-06
-1.369e-08
-1.59568e-06
-1.44603e-08
-1.58812e-06
-1.50803e-08
-1.58016e-06
-1.58032e-08
-1.57191e-06
-1.63991e-08
-1.56339e-06
-1.69626e-08
-1.5546e-06
-1.75941e-08
-1.54555e-06
-1.81482e-08
-1.53627e-06
-1.85883e-08
-1.5268e-06
-1.89488e-08
-1.51717e-06
-1.92582e-08
-1.50729e-06
-1.9702e-08
-1.49722e-06
-2.00715e-08
-1.48699e-06
-2.04078e-08
-1.47661e-06
-2.0741e-08
-1.46607e-06
-2.09855e-08
-1.4554e-06
-2.1255e-08
-1.4446e-06
-2.16022e-08
-1.43373e-06
-2.18646e-08
-1.42276e-06
-2.19186e-08
-1.41164e-06
-2.22007e-08
-1.40041e-06
-2.24553e-08
-1.38909e-06
-2.25631e-08
-1.37766e-06
-2.27576e-08
-1.36619e-06
-2.29099e-08
-1.3546e-06
-2.31511e-08
-1.34299e-06
-2.32406e-08
-1.33128e-06
-2.34253e-08
-1.31957e-06
-2.34317e-08
-1.30776e-06
-2.35273e-08
-1.29603e-06
-2.34033e-08
-1.28411e-06
-2.36166e-08
-1.2724e-06
-2.32942e-08
-1.26054e-06
-2.35212e-08
-1.24893e-06
-2.31742e-08
-1.23772e-06
-2.27265e-08
-1.22644e-06
-2.27431e-08
-1.21549e-06
-2.2432e-08
-1.20373e-06
-2.33598e-08
-1.19225e-06
-2.28723e-08
-1.17962e-06
-2.42082e-08
-1.16742e-06
-2.41503e-08
-1.15702e-06
-2.21957e-08
-1.14661e-06
-2.30809e-08
-1.13504e-06
-2.43002e-08
-1.12338e-06
-2.26223e-08
-1.103e-06
-3.21961e-08
-1.08441e-06
-3.09909e-08
-1.07994e-06
-1.55778e-08
-1.07513e-06
-2.41254e-08
-1.08006e-06
-1.36513e-08
-1.09009e-06
3.99405e-09
-1.12652e-06
2.24373e-08
-1.15896e-06
2.89167e-08
-1.16539e-06
1.60457e-08
-1.16085e-06
2.87167e-08
-1.14771e-06
2.04252e-08
-1.14303e-06
5.36852e-09
-1.13562e-06
6.70353e-10
-1.13097e-06
-4.76096e-09
-1.12473e-06
-8.2152e-09
-1.11897e-06
-1.06767e-08
-1.11172e-06
-1.25324e-08
-1.10416e-06
-1.42629e-08
-1.09191e-06
-1.96494e-08
-1.07985e-06
-2.11803e-08
-1.0735e-06
-1.5138e-08
-1.06676e-06
-1.99341e-08
-1.06317e-06
-1.69093e-08
-1.06152e-06
-9.89283e-09
-1.06981e-06
-3.8521e-09
-1.07668e-06
-1.48023e-09
-1.07138e-06
-8.3307e-09
-1.06222e-06
-3.14592e-09
-1.04862e-06
-7.66149e-09
-1.04015e-06
-1.26078e-08
-1.0278e-06
-1.73039e-08
-1.01833e-06
-1.6617e-08
-1.00248e-06
-2.46745e-08
-9.91043e-07
-1.95502e-08
-9.80678e-07
-2.04998e-08
-9.74197e-07
-1.60389e-08
-9.6777e-07
-2.00404e-08
-9.60585e-07
-2.09117e-08
-9.53538e-07
-1.72215e-08
-9.1329e-07
-5.318e-08
-8.78136e-07
-4.72327e-08
-8.77229e-07
-8.8742e-09
-8.75493e-07
-3.98583e-08
-9.37411e-07
2.85054e-08
-1.0082e-06
6.8764e-08
-1.26283e-06
2.24684e-07
-1.50499e-06
2.82801e-07
-1.66566e-06
2.21359e-07
-1.72896e-06
2.87116e-07
-1.71151e-06
2.11092e-07
-1.71601e-06
1.5284e-07
-1.73328e-06
1.17199e-07
-1.75467e-06
8.89637e-08
-1.77575e-06
6.83162e-08
-1.7947e-06
5.27666e-08
-1.81085e-06
4.09304e-08
-1.824e-06
3.15786e-08
-1.83433e-06
2.40623e-08
-1.84218e-06
1.8017e-08
-1.84785e-06
1.30538e-08
-1.8516e-06
8.83999e-09
-1.85377e-06
5.29006e-09
-1.85455e-06
2.26809e-09
-1.85413e-06
-3.01076e-10
-1.85264e-06
-2.61243e-09
-1.84996e-06
-4.63051e-09
-1.84632e-06
-6.51005e-09
-1.84184e-06
-8.23782e-09
-1.83661e-06
-9.77598e-09
-1.83076e-06
-1.10986e-08
-1.82438e-06
-1.22207e-08
-1.81755e-06
-1.31856e-08
-1.8103e-06
-1.40536e-08
-1.80263e-06
-1.48881e-08
-1.79464e-06
-1.56671e-08
-1.78623e-06
-1.64979e-08
-1.77735e-06
-1.73561e-08
-1.76807e-06
-1.81713e-08
-1.75842e-06
-1.89781e-08
-1.7484e-06
-1.97975e-08
-1.73803e-06
-2.06204e-08
-1.72733e-06
-2.14245e-08
-1.71633e-06
-2.21842e-08
-1.70505e-06
-2.28743e-08
-1.6935e-06
-2.34895e-08
-1.68169e-06
-2.4005e-08
-1.66958e-06
-2.44664e-08
-1.65728e-06
-2.47931e-08
-1.64491e-06
-2.49971e-08
-1.63245e-06
-2.51531e-08
-1.61992e-06
-2.52156e-08
-1.60738e-06
-2.51814e-08
-1.59486e-06
-2.50918e-08
-1.58232e-06
-2.50133e-08
-1.56973e-06
-2.5007e-08
-1.55706e-06
-2.51001e-08
-1.54429e-06
-2.52803e-08
-1.53143e-06
-2.55251e-08
-1.51846e-06
-2.5828e-08
-1.50536e-06
-2.61905e-08
-1.49211e-06
-2.65665e-08
-1.47875e-06
-2.68203e-08
-1.46538e-06
-2.67942e-08
-1.45212e-06
-2.64768e-08
-1.43898e-06
-2.61185e-08
-1.42581e-06
-2.60707e-08
-1.41252e-06
-2.64257e-08
-1.39921e-06
-2.68274e-08
-1.38607e-06
-2.67565e-08
-1.37319e-06
-2.60715e-08
-1.36074e-06
-2.51005e-08
-1.34789e-06
-2.50368e-08
-1.33463e-06
-2.57174e-08
-1.32139e-06
-2.62917e-08
-1.30855e-06
-2.59852e-08
-1.29611e-06
-2.50817e-08
-1.28334e-06
-2.49247e-08
-1.26992e-06
-2.59656e-08
-1.25658e-06
-2.67583e-08
-1.24367e-06
-2.64899e-08
-1.2309e-06
-2.59347e-08
-1.21749e-06
-2.65692e-08
-1.20416e-06
-2.72493e-08
-1.19132e-06
-2.69593e-08
-1.17879e-06
-2.59225e-08
-1.16604e-06
-2.55556e-08
-1.15328e-06
-2.57819e-08
-1.14e-06
-2.60081e-08
-1.12612e-06
-2.66451e-08
-2.04514e-08
-0.00013349
-5.21216e-06
-0.000132875
-1.81546e-06
-0.000132247
-1.86797e-06
-0.000131596
-1.99042e-06
-0.000130896
-2.18347e-06
-0.000130105
-2.47058e-06
-0.000129276
-2.53311e-06
-0.000128383
-2.66713e-06
-0.000127457
-2.75914e-06
-0.000126543
-2.7694e-06
-0.000125636
-2.83145e-06
-0.000124745
-2.80953e-06
-0.000123851
-2.8738e-06
-0.000122946
-2.88566e-06
-0.000122015
-2.90696e-06
-0.000121057
-2.90934e-06
-0.000120111
-2.9139e-06
-0.000119141
-2.89751e-06
-0.000118141
-2.91621e-06
-0.000117149
-2.99673e-06
-0.00011618
-3.13533e-06
-0.000115228
-3.24286e-06
-0.000114271
-3.25798e-06
-0.000113203
-3.15841e-06
-0.000112025
-3.07866e-06
-0.000110782
-3.12366e-06
-0.000109614
-3.3123e-06
-0.000108511
-3.54783e-06
-0.000107411
-3.56771e-06
-0.000106268
-3.40892e-06
-0.000105127
-3.38374e-06
-0.000103982
-3.57324e-06
-0.000102737
-3.90209e-06
-0.00010129
-4.03365e-06
-9.97928e-05
-3.7158e-06
-9.84498e-05
-3.40379e-06
-9.73619e-05
-3.22772e-06
-9.63312e-05
-3.39925e-06
-9.52535e-05
-3.86692e-06
-9.38267e-05
-4.20054e-06
-9.21906e-05
-4.14786e-06
-9.06686e-05
-3.9838e-06
-8.92789e-05
-4.05423e-06
-8.80255e-05
-4.3648e-06
-8.6725e-05
-4.55287e-06
-8.52644e-05
-4.43699e-06
-8.35985e-05
-4.17253e-06
-8.18986e-05
-4.05173e-06
-8.03599e-05
-4.21206e-06
-7.88826e-05
-4.53312e-06
-7.74938e-05
-4.75009e-06
-7.61493e-05
-4.77309e-06
-7.46426e-05
-4.72383e-06
-7.30303e-05
-4.48165e-06
-7.14351e-05
-4.25283e-06
-6.99673e-05
-4.30534e-06
-6.86047e-05
-4.64417e-06
-6.71828e-05
-4.89031e-06
-6.5668e-05
-4.72679e-06
-6.40725e-05