/*--------------------------------*- C++ -*----------------------------------*\
| =========                 |                                                 |
| \\      /  F ield         | OpenFOAM: The Open Source CFD Toolbox           |
|  \\    /   O peration     | Version:  v2006                                 |
|   \\  /    A nd           | Website:  www.openfoam.com                      |
|    \\/     M anipulation  |                                                 |
\*---------------------------------------------------------------------------*/
FoamFile
{
    version     2.0;
    format      ascii;
    class       volScalarField;
    location    "3.5";
    object      k;
}
// * * * * * * * * * * * * * * * * * * * * * * * * * * * * * * * * * * * * * //

dimensions      [0 2 -2 0 0 0 0];


internalField   nonuniform List<scalar> 
33000
(
2.33271e-08
2.57428e-08
2.84478e-08
3.14588e-08
3.47042e-08
3.80976e-08
4.15484e-08
4.49283e-08
4.81084e-08
5.09912e-08
5.35174e-08
5.56944e-08
5.75407e-08
5.91106e-08
6.04353e-08
6.15301e-08
6.23933e-08
6.3045e-08
6.34667e-08
6.36645e-08
6.37549e-08
6.3909e-08
6.42576e-08
6.47961e-08
6.53057e-08
6.55473e-08
6.54836e-08
6.53483e-08
6.54076e-08
6.56695e-08
6.59369e-08
6.61981e-08
6.65837e-08
6.71499e-08
6.7622e-08
6.77582e-08
6.76376e-08
6.76063e-08
6.78946e-08
6.84605e-08
6.89184e-08
6.89172e-08
6.85989e-08
6.84503e-08
6.88415e-08
6.96208e-08
7.02902e-08
7.03832e-08
6.99394e-08
6.94546e-08
6.9158e-08
6.91009e-08
6.93421e-08
6.96363e-08
6.9672e-08
6.92824e-08
6.87573e-08
6.8484e-08
6.85175e-08
6.85136e-08
6.81913e-08
6.76856e-08
6.74582e-08
6.78691e-08
6.84846e-08
6.8707e-08
6.84124e-08
6.78968e-08
6.77084e-08
6.78341e-08
6.7767e-08
6.73537e-08
6.66749e-08
6.58366e-08
6.51563e-08
6.43504e-08
6.31467e-08
6.13027e-08
6.01324e-08
5.95845e-08
5.68068e-08
5.37695e-08
5.12991e-08
4.96602e-08
4.85507e-08
4.8369e-08
4.83271e-08
4.77213e-08
4.71814e-08
4.70697e-08
4.69863e-08
4.68963e-08
4.69611e-08
4.67464e-08
4.64353e-08
4.58799e-08
4.52172e-08
4.42844e-08
4.33204e-08
4.12894e-08
3.88866e-08
3.73173e-08
3.62751e-08
3.52086e-08
3.40452e-08
3.37665e-08
3.41044e-08
3.43728e-08
3.41971e-08
3.38186e-08
3.35968e-08
3.32585e-08
3.30446e-08
3.28596e-08
3.26847e-08
3.22883e-08
3.19634e-08
3.13162e-08
3.06982e-08
3.04034e-08
3.02449e-08
3.02614e-08
3.00602e-08
3.00076e-08
3.02291e-08
3.03466e-08
3.04287e-08
3.05055e-08
3.0533e-08
3.05556e-08
3.0607e-08
3.06495e-08
3.07154e-08
3.07911e-08
3.08711e-08
3.09671e-08
3.10903e-08
3.12379e-08
3.13771e-08
3.14918e-08
3.15922e-08
3.16686e-08
3.17127e-08
3.17221e-08
3.1711e-08
3.16856e-08
3.16524e-08
3.1618e-08
3.15827e-08
3.15443e-08
3.15049e-08
3.14615e-08
3.14105e-08
3.13588e-08
3.13124e-08
3.12693e-08
3.12254e-08
3.11745e-08
3.11232e-08
3.10756e-08
3.10311e-08
3.09864e-08
3.09393e-08
3.08947e-08
3.08529e-08
3.08098e-08
3.07626e-08
3.07142e-08
3.06684e-08
3.06251e-08
3.05799e-08
3.05332e-08
3.04894e-08
3.04501e-08
3.0412e-08
3.03734e-08
3.03375e-08
3.03063e-08
3.0279e-08
3.02541e-08
3.02308e-08
3.02085e-08
3.01884e-08
3.01721e-08
3.01588e-08
3.01459e-08
3.01322e-08
3.01207e-08
3.01111e-08
3.01012e-08
3.00894e-08
3.00772e-08
3.0066e-08
3.00534e-08
3.0038e-08
3.00189e-08
2.99964e-08
2.9971e-08
2.99423e-08
2.99078e-08
2.98703e-08
2.98312e-08
2.9788e-08
2.97397e-08
2.96878e-08
2.96321e-08
2.95728e-08
2.95136e-08
2.94522e-08
2.93858e-08
2.93153e-08
2.92436e-08
2.91696e-08
2.9092e-08
2.9012e-08
2.89282e-08
2.88438e-08
2.87576e-08
2.86684e-08
2.85768e-08
2.84827e-08
2.83854e-08
2.82875e-08
2.81889e-08
2.80873e-08
2.79834e-08
2.78769e-08
2.7769e-08
2.76584e-08
2.75475e-08
2.74355e-08
2.73214e-08
2.72062e-08
2.70877e-08
2.69683e-08
2.68483e-08
2.67272e-08
2.66048e-08
2.648e-08
2.63554e-08
2.62297e-08
2.61028e-08
2.59741e-08
2.58447e-08
2.57133e-08
2.55814e-08
2.54504e-08
2.53167e-08
2.51819e-08
2.50478e-08
2.49122e-08
2.47762e-08
2.4639e-08
2.45018e-08
2.43644e-08
2.42259e-08
2.40865e-08
2.39465e-08
2.38069e-08
2.36665e-08
2.35244e-08
2.33818e-08
2.32399e-08
2.30979e-08
2.29547e-08
2.28118e-08
2.26682e-08
2.25239e-08
2.23797e-08
2.22355e-08
2.2092e-08
2.19474e-08
2.18028e-08
2.16576e-08
2.15127e-08
2.13679e-08
2.12228e-08
2.10778e-08
2.0933e-08
2.07889e-08
2.06453e-08
2.0501e-08
2.03577e-08
2.02177e-08
2.00826e-08
1.99511e-08
1.98236e-08
1.97002e-08
1.95808e-08
1.94655e-08
1.93542e-08
1.92468e-08
1.91444e-08
1.90467e-08
1.8953e-08
1.88644e-08
1.878e-08
1.87003e-08
1.86257e-08
1.85556e-08
1.849e-08
1.84294e-08
1.8373e-08
1.83214e-08
1.82747e-08
1.82319e-08
1.81931e-08
1.81574e-08
1.81268e-08
1.81003e-08
1.80766e-08
1.80559e-08
1.80369e-08
1.80195e-08
1.80012e-08
1.79815e-08
1.796e-08
1.79367e-08
1.79121e-08
1.78859e-08
1.78578e-08
1.78278e-08
1.77953e-08
1.77618e-08
1.77268e-08
1.76895e-08
1.76497e-08
1.76081e-08
1.75655e-08
1.75206e-08
1.74739e-08
1.7425e-08
1.73738e-08
1.73203e-08
1.72648e-08
1.72071e-08
1.71474e-08
1.70857e-08
1.7022e-08
1.69563e-08
1.68886e-08
1.68195e-08
1.67488e-08
1.66764e-08
1.66023e-08
1.65262e-08
1.64486e-08
1.63697e-08
1.62894e-08
1.62076e-08
1.61241e-08
1.60396e-08
1.59542e-08
1.58676e-08
1.57801e-08
1.56915e-08
1.56024e-08
1.55125e-08
1.5422e-08
1.53305e-08
1.52385e-08
1.51462e-08
1.50533e-08
1.49602e-08
1.48668e-08
1.47733e-08
1.46797e-08
1.45863e-08
1.44927e-08
1.43992e-08
1.43056e-08
1.4212e-08
1.41186e-08
1.40255e-08
1.39326e-08
1.384e-08
1.37479e-08
1.36563e-08
1.35652e-08
1.34747e-08
1.33847e-08
1.32951e-08
1.32062e-08
1.31179e-08
1.30306e-08
1.2944e-08
1.28583e-08
1.27735e-08
1.26893e-08
1.26061e-08
1.25236e-08
1.2442e-08
1.23611e-08
1.22811e-08
1.22022e-08
1.21241e-08
1.20471e-08
1.19709e-08
1.18957e-08
1.18213e-08
1.17477e-08
1.16749e-08
1.16032e-08
1.15323e-08
1.14626e-08
1.13939e-08
1.13263e-08
1.12596e-08
1.11938e-08
1.11292e-08
1.10656e-08
1.1003e-08
1.09413e-08
1.08803e-08
1.08208e-08
1.0761e-08
1.07024e-08
1.06443e-08
1.05855e-08
1.0529e-08
1.04765e-08
1.04188e-08
1.03672e-08
1.03129e-08
1.02426e-08
1.0193e-08
1.01576e-08
1.00884e-08
1.0083e-08
1.00434e-08
1.01172e-08
1.00742e-08
1.00776e-08
1.00395e-08
1.00166e-08
9.97783e-09
9.94639e-09
9.90831e-09
9.87381e-09
9.83479e-09
9.79776e-09
9.7596e-09
9.71536e-09
9.67759e-09
9.64489e-09
9.59964e-09
9.57589e-09
9.5393e-09
9.53986e-09
9.50428e-09
9.48077e-09
9.44895e-09
9.41872e-09
9.38816e-09
9.35787e-09
9.32804e-09
9.29756e-09
9.26064e-09
9.22887e-09
9.20585e-09
9.16357e-09
9.14752e-09
9.11504e-09
9.02038e-09
8.99891e-09
9.00887e-09
8.90387e-09
9.10696e-09
9.08397e-09
9.84037e-09
9.82857e-09
1.00625e-08
1.01567e-08
1.0232e-08
1.02818e-08
1.03156e-08
1.0338e-08
1.03524e-08
1.03606e-08
1.03639e-08
1.03636e-08
1.03601e-08
1.0354e-08
1.03458e-08
1.03359e-08
1.03245e-08
1.03119e-08
1.02979e-08
1.02827e-08
1.02664e-08
1.02492e-08
1.02314e-08
1.02129e-08
1.01941e-08
1.01747e-08
1.0155e-08
1.01347e-08
1.0114e-08
1.00927e-08
1.00708e-08
1.00482e-08
1.00248e-08
1.00007e-08
9.97575e-09
9.95032e-09
9.92452e-09
9.89855e-09
9.87256e-09
9.84665e-09
9.8209e-09
9.79541e-09
9.77024e-09
9.74543e-09
9.72098e-09
9.69684e-09
9.67291e-09
9.6491e-09
9.62533e-09
9.60155e-09
9.57774e-09
9.55384e-09
9.52988e-09
9.50592e-09
9.48212e-09
9.45864e-09
9.43553e-09
9.41263e-09
9.38973e-09
9.3666e-09
9.34349e-09
9.32077e-09
9.29861e-09
9.27679e-09
9.25484e-09
9.23268e-09
9.21055e-09
9.18894e-09
9.16767e-09
9.14619e-09
9.12444e-09
9.10246e-09
9.08086e-09
9.05975e-09
9.03849e-09
9.01646e-09
8.99559e-09
8.9751e-09
8.91625e-09
9.06995e-09
8.70546e-09
1.05063e-08
1.06695e-08
1.08567e-08
1.1069e-08
1.13008e-08
1.15456e-08
1.17976e-08
1.20481e-08
1.22904e-08
1.25182e-08
1.27272e-08
1.29153e-08
1.30836e-08
1.32309e-08
1.33613e-08
1.34741e-08
1.35696e-08
1.36495e-08
1.37147e-08
1.37659e-08
1.38119e-08
1.38637e-08
1.39286e-08
1.40066e-08
1.408e-08
1.41295e-08
1.41544e-08
1.41705e-08
1.42019e-08
1.42492e-08
1.42935e-08
1.43335e-08
1.4374e-08
1.44289e-08
1.449e-08
1.45233e-08
1.45294e-08
1.45297e-08
1.45388e-08
1.45616e-08
1.45933e-08
1.46025e-08
1.45856e-08
1.45683e-08
1.45888e-08
1.46484e-08
1.47013e-08
1.46976e-08
1.4631e-08
1.45413e-08
1.447e-08
1.44377e-08
1.44418e-08
1.44558e-08
1.44422e-08
1.43807e-08
1.43003e-08
1.42491e-08
1.42431e-08
1.42462e-08
1.42363e-08
1.4243e-08
1.43227e-08
1.45096e-08
1.47274e-08
1.48906e-08
1.50092e-08
1.51587e-08
1.54084e-08
1.57265e-08
1.60457e-08
1.64096e-08
1.691e-08
1.77277e-08
1.91119e-08
2.10872e-08
2.36682e-08
2.63498e-08
2.85648e-08
2.99752e-08
3.1194e-08
3.05629e-08
2.69632e-08
2.28073e-08
1.75639e-08
1.43885e-08
1.28695e-08
1.18519e-08
1.14035e-08
1.12388e-08
1.1166e-08
1.11427e-08
1.11691e-08
1.12525e-08
1.15076e-08
1.19437e-08
1.30281e-08
1.40394e-08
1.60966e-08
1.7443e-08
1.66473e-08
1.44255e-08
1.2109e-08
1.11579e-08
1.07947e-08
1.06595e-08
1.06264e-08
1.06214e-08
1.05881e-08
1.05564e-08
1.05571e-08
1.05581e-08
1.05664e-08
1.06254e-08
1.07517e-08
1.09493e-08
1.15512e-08
1.19029e-08
1.1485e-08
1.09602e-08
1.06626e-08
1.05426e-08
1.05028e-08
1.04854e-08
1.04847e-08
1.04647e-08
1.04407e-08
1.04288e-08
1.04267e-08
1.04239e-08
1.04196e-08
1.04196e-08
1.04272e-08
1.04352e-08
1.04356e-08
1.04305e-08
1.04331e-08
1.04419e-08
1.04472e-08
1.04447e-08
1.04482e-08
1.04567e-08
1.0462e-08
1.04642e-08
1.04702e-08
1.04762e-08
1.04765e-08
1.04736e-08
1.04776e-08
1.04857e-08
1.04919e-08
1.04981e-08
1.04962e-08
1.04864e-08
1.04849e-08
1.04959e-08
1.05052e-08
1.05022e-08
1.04942e-08
1.0496e-08
1.05065e-08
1.05109e-08
1.05039e-08
1.05004e-08
1.05098e-08
1.05184e-08
1.05149e-08
1.05091e-08
1.05129e-08
1.05248e-08
1.05278e-08
1.05181e-08
1.05148e-08
1.05256e-08
1.05337e-08
1.05315e-08
1.05274e-08
1.05275e-08
1.05308e-08
1.05342e-08
1.05378e-08
1.05367e-08
1.05355e-08
1.054e-08
1.05452e-08
1.05427e-08
1.05333e-08
1.05335e-08
1.0542e-08
1.05463e-08
1.05429e-08
1.05404e-08
1.05425e-08
1.05414e-08
1.05365e-08
1.05311e-08
1.05313e-08
1.05326e-08
1.05256e-08
1.05129e-08
1.05078e-08
1.05096e-08
1.05124e-08
1.05036e-08
1.04901e-08
1.04783e-08
1.04741e-08
1.04776e-08
1.04715e-08
1.04571e-08
1.04458e-08
1.04457e-08
1.04396e-08
1.043e-08
1.04185e-08
1.04041e-08
1.04024e-08
1.03991e-08
1.0393e-08
1.03877e-08
1.03704e-08
1.03567e-08
1.03533e-08
1.03526e-08
1.03458e-08
1.03364e-08
1.03301e-08
1.03206e-08
1.03082e-08
1.03054e-08
1.03049e-08
1.02983e-08
1.0291e-08
1.02817e-08
1.02709e-08
1.02713e-08
1.02712e-08
1.02679e-08
1.02599e-08
1.02563e-08
1.02512e-08
1.02462e-08
1.02422e-08
1.02395e-08
1.02352e-08
1.02305e-08
1.02345e-08
1.023e-08
1.02207e-08
1.02194e-08
1.02185e-08
1.02156e-08
1.02138e-08
1.02098e-08
1.02087e-08
1.02063e-08
1.0201e-08
1.01994e-08
1.01998e-08
1.01961e-08
1.01918e-08
1.01874e-08
1.0188e-08
1.01871e-08
1.01846e-08
1.01819e-08
1.0179e-08
1.01736e-08
1.01703e-08
1.01698e-08
1.0169e-08
1.01671e-08
1.01641e-08
1.01612e-08
1.01587e-08
1.01552e-08
1.01531e-08
1.01507e-08
1.01482e-08
1.01457e-08
1.01445e-08
1.01427e-08
1.01385e-08
1.01352e-08
1.01326e-08
1.01305e-08
1.0129e-08
1.01269e-08
1.0124e-08
1.01214e-08
1.0118e-08
1.01154e-08
1.0114e-08
1.01118e-08
1.0109e-08
1.01067e-08
1.01041e-08
1.01016e-08
1.00994e-08
1.00969e-08
1.00945e-08
1.00921e-08
1.00896e-08
1.00874e-08
1.00849e-08
1.00825e-08
1.00799e-08
1.00774e-08
1.00756e-08
1.00731e-08
1.00706e-08
1.00682e-08
1.00658e-08
1.00635e-08
1.00612e-08
1.00589e-08
1.00565e-08
1.00543e-08
1.00522e-08
1.00499e-08
1.00477e-08
1.00455e-08
1.00433e-08
1.00415e-08
1.00393e-08
1.00372e-08
1.00351e-08
1.00334e-08
1.00316e-08
1.00298e-08
1.0028e-08
1.00263e-08
1.00247e-08
1.00231e-08
1.00216e-08
1.00203e-08
1.00189e-08
1.00177e-08
1.00165e-08
1.00153e-08
1.00143e-08
1.00134e-08
1.00125e-08
1.00116e-08
1.00109e-08
1.00101e-08
1.00095e-08
1.0009e-08
1.00085e-08
1.0008e-08
1.00076e-08
1.00072e-08
1.00069e-08
1.00066e-08
1.00064e-08
1.00062e-08
1.00061e-08
1.00059e-08
1.00058e-08
1.00057e-08
1.00056e-08
1.00056e-08
1.00055e-08
1.00054e-08
1.00053e-08
1.00052e-08
1.0005e-08
1.00049e-08
1.00048e-08
1.00047e-08
1.00046e-08
1.00044e-08
1.00042e-08
1.0004e-08
1.00038e-08
1.00036e-08
1.00033e-08
1.00031e-08
1.00029e-08
1.00026e-08
1.00023e-08
1.0002e-08
1.00017e-08
1.00013e-08
1.00009e-08
1.00006e-08
1.00003e-08
9.99994e-09
9.9996e-09
9.99925e-09
9.99888e-09
9.99849e-09
9.99808e-09
9.99767e-09
9.9973e-09
9.99692e-09
9.99653e-09
9.99616e-09
9.99577e-09
9.9954e-09
9.99499e-09
9.99461e-09
9.9942e-09
9.99382e-09
9.99341e-09
9.99305e-09
9.99256e-09
9.99217e-09
9.99162e-09
9.99104e-09
9.99061e-09
9.99014e-09
9.99008e-09
9.98966e-09
9.98974e-09
9.98913e-09
9.98784e-09
9.98755e-09
9.98794e-09
9.98787e-09
9.9917e-09
9.99013e-09
9.98499e-09
9.98377e-09
9.98064e-09
9.97955e-09
9.98491e-09
9.98556e-09
9.98222e-09
9.984e-09
9.98784e-09
9.98489e-09
9.98204e-09
9.98061e-09
9.98003e-09
9.97936e-09
9.97963e-09
9.97975e-09
9.98152e-09
9.98118e-09
9.97909e-09
9.97867e-09
9.97717e-09
9.97624e-09
9.9747e-09
9.97518e-09
9.978e-09
9.97888e-09
9.9803e-09
9.97826e-09
9.9788e-09
9.97769e-09
9.98032e-09
9.97778e-09
9.976e-09
9.9745e-09
9.97318e-09
9.97494e-09
9.97586e-09
9.99323e-09
9.99001e-09
9.99737e-09
9.99251e-09
1.00256e-08
1.00267e-08
1.00517e-08
1.00517e-08
1.00278e-08
1.00124e-08
1.00235e-08
1.00145e-08
9.99762e-09
9.98975e-09
9.98376e-09
9.97956e-09
9.97643e-09
9.97403e-09
9.97215e-09
9.97072e-09
9.96968e-09
9.96907e-09
9.96881e-09
9.96873e-09
9.96879e-09
9.96897e-09
9.96927e-09
9.96964e-09
9.97004e-09
9.9704e-09
9.9707e-09
9.97092e-09
9.9711e-09
9.97127e-09
9.97146e-09
9.97167e-09
9.97193e-09
9.97223e-09
9.9725e-09
9.97277e-09
9.97303e-09
9.97328e-09
9.97351e-09
9.97368e-09
9.97384e-09
9.974e-09
9.97413e-09
9.97423e-09
9.97429e-09
9.97429e-09
9.97424e-09
9.97413e-09
9.97397e-09
9.9738e-09
9.97366e-09
9.97357e-09
9.97352e-09
9.97351e-09
9.97352e-09
9.97354e-09
9.97361e-09
9.9737e-09
9.97374e-09
9.97365e-09
9.97344e-09
9.97322e-09
9.97313e-09
9.97318e-09
9.97312e-09
9.97285e-09
9.97243e-09
9.97201e-09
9.97206e-09
9.97246e-09
9.97252e-09
9.97211e-09
9.97163e-09
9.9717e-09
9.97233e-09
9.97241e-09
9.97199e-09
9.9719e-09
9.9724e-09
9.97232e-09
9.9717e-09
9.97147e-09
9.97135e-09
9.97582e-09
9.97314e-09
1.00007e-08
9.97864e-09
1.00645e-08
1.00831e-08
1.01047e-08
1.01295e-08
1.01566e-08
1.01851e-08
1.02144e-08
1.02436e-08
1.02718e-08
1.02986e-08
1.03234e-08
1.03462e-08
1.03666e-08
1.03849e-08
1.04011e-08
1.04155e-08
1.04281e-08
1.04391e-08
1.04487e-08
1.0457e-08
1.0465e-08
1.04735e-08
1.04833e-08
1.04938e-08
1.05033e-08
1.05106e-08
1.0516e-08
1.05211e-08
1.05279e-08
1.05361e-08
1.05433e-08
1.0549e-08
1.05549e-08
1.05636e-08
1.05754e-08
1.05858e-08
1.05914e-08
1.05906e-08
1.05862e-08
1.05831e-08
1.05832e-08
1.05838e-08
1.05822e-08
1.05795e-08
1.05798e-08
1.05838e-08
1.05875e-08
1.05858e-08
1.05775e-08
1.0566e-08
1.05563e-08
1.0551e-08
1.05496e-08
1.05503e-08
1.05489e-08
1.05418e-08
1.0531e-08
1.05224e-08
1.05188e-08
1.05164e-08
1.05138e-08
1.05155e-08
1.05296e-08
1.05595e-08
1.05951e-08
1.06259e-08
1.06547e-08
1.06959e-08
1.07562e-08
1.08258e-08
1.08957e-08
1.09733e-08
1.10763e-08
1.1249e-08
1.15564e-08
1.20726e-08
1.28898e-08
1.39904e-08
1.54023e-08
1.67065e-08
1.76632e-08
1.79959e-08
1.76885e-08
1.68069e-08
1.53956e-08
1.37788e-08
1.24173e-08
1.13254e-08
1.06673e-08
1.03334e-08
1.01787e-08
1.01172e-08
1.0092e-08
1.00836e-08
1.0087e-08
1.01111e-08
1.0186e-08
1.03195e-08
1.0604e-08
1.10886e-08
1.11557e-08
1.09474e-08
1.06124e-08
1.03742e-08
1.02111e-08
1.01183e-08
1.00771e-08
1.00609e-08
1.00516e-08
1.00462e-08
1.00447e-08
1.00439e-08
1.00439e-08
1.00448e-08
1.00473e-08
1.00525e-08
1.0072e-08
1.01019e-08
1.01e-08
1.00918e-08
1.00799e-08
1.00663e-08
1.00548e-08
1.0048e-08
1.00438e-08
1.00407e-08
1.00384e-08
1.00375e-08
1.00372e-08
1.0037e-08
1.00365e-08
1.00362e-08
1.00363e-08
1.00367e-08
1.00367e-08
1.00364e-08
1.00366e-08
1.0037e-08
1.00372e-08
1.0037e-08
1.00373e-08
1.00378e-08
1.0038e-08
1.00381e-08
1.00385e-08
1.00388e-08
1.00388e-08
1.00385e-08
1.00389e-08
1.00394e-08
1.00398e-08
1.00401e-08
1.004e-08
1.00395e-08
1.00395e-08
1.00402e-08
1.00408e-08
1.00406e-08
1.00402e-08
1.00404e-08
1.00411e-08
1.00414e-08
1.0041e-08
1.00408e-08
1.00414e-08
1.0042e-08
1.00418e-08
1.00414e-08
1.00416e-08
1.00424e-08
1.00426e-08
1.00419e-08
1.00416e-08
1.00422e-08
1.00427e-08
1.00424e-08
1.0042e-08
1.0042e-08
1.00421e-08
1.00421e-08
1.00422e-08
1.00421e-08
1.00419e-08
1.0042e-08
1.00422e-08
1.00418e-08
1.0041e-08
1.00408e-08
1.00411e-08
1.00412e-08
1.00408e-08
1.00405e-08
1.00404e-08
1.00401e-08
1.00396e-08
1.0039e-08
1.00389e-08
1.00388e-08
1.00382e-08
1.00374e-08
1.00369e-08
1.00369e-08
1.00369e-08
1.00362e-08
1.00354e-08
1.00346e-08
1.00343e-08
1.00344e-08
1.00339e-08
1.0033e-08
1.00324e-08
1.00323e-08
1.00319e-08
1.00313e-08
1.00307e-08
1.003e-08
1.00298e-08
1.00296e-08
1.00292e-08
1.0029e-08
1.00282e-08
1.00276e-08
1.00273e-08
1.00272e-08
1.00269e-08
1.00265e-08
1.00262e-08
1.00258e-08
1.00253e-08
1.00251e-08
1.00251e-08
1.00248e-08
1.00245e-08
1.00242e-08
1.00237e-08
1.00236e-08
1.00235e-08
1.00234e-08
1.00231e-08
1.0023e-08
1.00226e-08
1.00223e-08
1.00222e-08
1.00221e-08
1.00219e-08
1.00216e-08
1.00217e-08
1.00217e-08
1.00213e-08
1.00211e-08
1.00211e-08
1.0021e-08
1.00209e-08
1.00208e-08
1.00207e-08
1.00206e-08
1.00204e-08
1.00204e-08
1.00204e-08
1.00203e-08
1.00201e-08
1.00199e-08
1.00199e-08
1.00199e-08
1.00198e-08
1.00197e-08
1.00196e-08
1.00195e-08
1.00193e-08
1.00193e-08
1.00192e-08
1.00192e-08
1.00191e-08
1.0019e-08
1.00189e-08
1.00188e-08
1.00187e-08
1.00186e-08
1.00185e-08
1.00184e-08
1.00183e-08
1.00183e-08
1.00182e-08
1.0018e-08
1.00179e-08
1.00179e-08
1.00178e-08
1.00177e-08
1.00176e-08
1.00175e-08
1.00174e-08
1.00173e-08
1.00172e-08
1.00171e-08
1.0017e-08
1.00169e-08
1.00168e-08
1.00168e-08
1.00167e-08
1.00166e-08
1.00165e-08
1.00164e-08
1.00163e-08
1.00162e-08
1.00161e-08
1.0016e-08
1.00159e-08
1.00158e-08
1.00157e-08
1.00156e-08
1.00155e-08
1.00154e-08
1.00154e-08
1.00153e-08
1.00152e-08
1.00151e-08
1.0015e-08
1.00149e-08
1.00148e-08
1.00147e-08
1.00147e-08
1.00146e-08
1.00145e-08
1.00144e-08
1.00143e-08
1.00143e-08
1.00142e-08
1.00141e-08
1.0014e-08
1.0014e-08
1.00139e-08
1.00138e-08
1.00137e-08
1.00137e-08
1.00136e-08
1.00135e-08
1.00135e-08
1.00134e-08
1.00133e-08
1.00133e-08
1.00132e-08
1.00131e-08
1.00131e-08
1.0013e-08
1.0013e-08
1.00129e-08
1.00128e-08
1.00127e-08
1.00127e-08
1.00126e-08
1.00125e-08
1.00125e-08
1.00124e-08
1.00123e-08
1.00123e-08
1.00122e-08
1.00122e-08
1.00122e-08
1.00121e-08
1.00121e-08
1.00121e-08
1.00121e-08
1.00121e-08
1.00121e-08
1.00121e-08
1.00121e-08
1.00121e-08
1.00121e-08
1.00121e-08
1.00121e-08
1.00121e-08
1.0012e-08
1.0012e-08
1.0012e-08
1.00119e-08
1.00119e-08
1.00119e-08
1.00118e-08
1.00118e-08
1.00117e-08
1.00117e-08
1.00116e-08
1.00116e-08
1.00115e-08
1.00115e-08
1.00114e-08
1.00114e-08
1.00113e-08
1.00113e-08
1.00112e-08
1.00112e-08
1.00111e-08
1.00111e-08
1.0011e-08
1.0011e-08
1.00109e-08
1.00109e-08
1.00108e-08
1.00107e-08
1.00107e-08
1.00106e-08
1.00106e-08
1.00105e-08
1.00105e-08
1.00104e-08
1.00103e-08
1.00103e-08
1.00102e-08
1.00102e-08
1.00101e-08
1.001e-08
1.001e-08
1.00099e-08
1.00099e-08
1.00098e-08
1.00097e-08
1.00097e-08
1.00097e-08
1.00095e-08
1.00093e-08
1.00093e-08
1.00091e-08
1.00088e-08
1.00073e-08
1.00074e-08
1.00089e-08
1.00088e-08
1.00089e-08
1.00089e-08
1.00089e-08
1.00088e-08
1.00086e-08
1.00086e-08
1.00085e-08
1.00084e-08
1.00083e-08
1.00082e-08
1.0008e-08
1.0008e-08
1.00078e-08
1.00075e-08
1.00069e-08
1.00068e-08
1.00077e-08
1.00076e-08
1.00076e-08
1.00075e-08
1.00076e-08
1.00075e-08
1.00075e-08
1.00072e-08
1.0007e-08
1.00067e-08
1.00071e-08
1.00066e-08
1.00065e-08
1.00078e-08
1.00074e-08
1.00072e-08
1.00067e-08
1.00095e-08
1.00095e-08
1.00116e-08
1.00112e-08
1.00086e-08
1.00095e-08
1.00093e-08
1.00085e-08
1.00082e-08
1.00072e-08
1.00058e-08
1.0005e-08
1.00048e-08
1.00043e-08
1.00037e-08
1.00032e-08
1.00028e-08
1.00024e-08
1.00019e-08
1.00016e-08
1.00013e-08
1.00011e-08
1.00011e-08
1.00012e-08
1.00016e-08
1.0002e-08
1.00025e-08
1.00029e-08
1.00032e-08
1.00035e-08
1.00037e-08
1.00038e-08
1.0004e-08
1.00041e-08
1.00042e-08
1.00043e-08
1.00044e-08
1.00045e-08
1.00046e-08
1.00046e-08
1.00046e-08
1.00046e-08
1.00045e-08
1.00045e-08
1.00045e-08
1.00046e-08
1.00047e-08
1.00048e-08
1.00048e-08
1.00048e-08
1.00048e-08
1.00047e-08
1.00046e-08
1.00046e-08
1.00046e-08
1.00046e-08
1.00045e-08
1.00044e-08
1.00044e-08
1.00044e-08
1.00045e-08
1.00046e-08
1.00047e-08
1.00046e-08
1.00045e-08
1.00043e-08
1.00041e-08
1.00039e-08
1.00038e-08
1.00039e-08
1.0004e-08
1.00043e-08
1.00042e-08
1.00037e-08
1.00037e-08
1.00038e-08
1.00044e-08
1.00042e-08
1.00035e-08
1.00034e-08
1.00037e-08
1.00039e-08
1.00034e-08
1.00033e-08
1.00036e-08
1.00037e-08
1.00039e-08
1.00029e-08
1.0007e-08
1.00042e-08
1.0025e-08
1.00291e-08
1.0034e-08
1.00396e-08
1.00455e-08
1.00515e-08
1.00574e-08
1.0063e-08
1.00682e-08
1.00729e-08
1.00771e-08
1.00807e-08
1.00837e-08
1.00863e-08
1.00885e-08
1.00903e-08
1.00919e-08
1.00932e-08
1.00943e-08
1.00953e-08
1.00962e-08
1.00972e-08
1.00982e-08
1.00992e-08
1.01002e-08
1.01009e-08
1.01015e-08
1.01021e-08
1.01028e-08
1.01036e-08
1.01043e-08
1.01051e-08
1.01059e-08
1.01071e-08
1.01086e-08
1.011e-08
1.01107e-08
1.01105e-08
1.01098e-08
1.0109e-08
1.01085e-08
1.01082e-08
1.01077e-08
1.01072e-08
1.0107e-08
1.0107e-08
1.01069e-08
1.01063e-08
1.01052e-08
1.01039e-08
1.01027e-08
1.01017e-08
1.0101e-08
1.01007e-08
1.01002e-08
1.00991e-08
1.00975e-08
1.0096e-08
1.00948e-08
1.00936e-08
1.00927e-08
1.00925e-08
1.00941e-08
1.00974e-08
1.01016e-08
1.01059e-08
1.01109e-08
1.01186e-08
1.01286e-08
1.01398e-08
1.01516e-08
1.01658e-08
1.01848e-08
1.02138e-08
1.02633e-08
1.03504e-08
1.05e-08
1.07296e-08
1.10693e-08
1.14915e-08
1.20341e-08
1.25705e-08
1.2833e-08
1.28405e-08
1.25562e-08
1.21481e-08
1.16948e-08
1.12567e-08
1.08905e-08
1.05863e-08
1.03694e-08
1.02227e-08
1.01365e-08
1.00873e-08
1.00601e-08
1.00456e-08
1.00402e-08
1.00419e-08
1.00566e-08
1.00981e-08
1.01187e-08
1.01256e-08
1.01217e-08
1.00969e-08
1.00736e-08
1.00561e-08
1.00448e-08
1.00394e-08
1.00367e-08
1.00369e-08
1.00358e-08
1.00336e-08
1.00316e-08
1.00304e-08
1.00294e-08
1.00287e-08
1.00283e-08
1.00284e-08
1.00283e-08
1.00286e-08
1.0029e-08
1.00287e-08
1.00285e-08
1.00284e-08
1.00282e-08
1.00286e-08
1.00292e-08
1.00287e-08
1.00279e-08
1.00271e-08
1.00265e-08
1.00259e-08
1.00256e-08
1.00252e-08
1.00249e-08
1.00247e-08
1.00246e-08
1.00245e-08
1.00245e-08
1.00245e-08
1.00245e-08
1.00244e-08
1.00244e-08
1.00243e-08
1.00243e-08
1.00242e-08
1.00242e-08
1.00241e-08
1.0024e-08
1.0024e-08
1.00239e-08
1.00239e-08
1.00239e-08
1.00238e-08
1.00238e-08
1.00238e-08
1.00238e-08
1.00238e-08
1.00237e-08
1.00237e-08
1.00237e-08
1.00237e-08
1.00237e-08
1.00236e-08
1.00236e-08
1.00236e-08
1.00236e-08
1.00235e-08
1.00235e-08
1.00234e-08
1.00234e-08
1.00233e-08
1.00232e-08
1.00232e-08
1.00232e-08
1.00232e-08
1.00231e-08
1.0023e-08
1.0023e-08
1.0023e-08
1.00229e-08
1.00229e-08
1.00228e-08
1.00227e-08
1.00227e-08
1.00226e-08
1.00225e-08
1.00225e-08
1.00224e-08
1.00224e-08
1.00223e-08
1.00223e-08
1.00222e-08
1.00222e-08
1.00221e-08
1.0022e-08
1.00219e-08
1.00219e-08
1.00218e-08
1.00217e-08
1.00216e-08
1.00215e-08
1.00215e-08
1.00214e-08
1.00213e-08
1.00212e-08
1.00212e-08
1.00211e-08
1.0021e-08
1.00209e-08
1.00208e-08
1.00208e-08
1.00207e-08
1.00206e-08
1.00206e-08
1.00205e-08
1.00204e-08
1.00203e-08
1.00203e-08
1.00202e-08
1.00201e-08
1.002e-08
1.002e-08
1.00199e-08
1.00198e-08
1.00198e-08
1.00197e-08
1.00196e-08
1.00196e-08
1.00195e-08
1.00194e-08
1.00194e-08
1.00193e-08
1.00192e-08
1.00192e-08
1.00191e-08
1.0019e-08
1.00189e-08
1.00189e-08
1.00189e-08
1.00187e-08
1.00185e-08
1.00185e-08
1.00185e-08
1.00184e-08
1.00181e-08
1.00181e-08
1.00182e-08
1.0018e-08
1.00178e-08
1.00178e-08
1.00178e-08
1.00177e-08
1.00176e-08
1.00176e-08
1.00175e-08
1.00174e-08
1.00173e-08
1.00174e-08
1.00173e-08
1.00172e-08
1.00171e-08
1.00171e-08
1.00171e-08
1.0017e-08
1.0017e-08
1.00169e-08
1.00169e-08
1.00168e-08
1.00167e-08
1.00167e-08
1.00167e-08
1.00166e-08
1.00165e-08
1.00165e-08
1.00165e-08
1.00164e-08
1.00163e-08
1.00163e-08
1.00162e-08
1.00162e-08
1.00161e-08
1.00161e-08
1.0016e-08
1.0016e-08
1.00159e-08
1.00159e-08
1.00158e-08
1.00157e-08
1.00157e-08
1.00156e-08
1.00156e-08
1.00155e-08
1.00155e-08
1.00154e-08
1.00153e-08
1.00153e-08
1.00152e-08
1.00152e-08
1.00151e-08
1.0015e-08
1.0015e-08
1.00149e-08
1.00149e-08
1.00148e-08
1.00147e-08
1.00147e-08
1.00146e-08
1.00146e-08
1.00145e-08
1.00144e-08
1.00144e-08
1.00143e-08
1.00142e-08
1.00142e-08
1.00141e-08
1.00141e-08
1.0014e-08
1.0014e-08
1.00139e-08
1.00138e-08
1.00138e-08
1.00137e-08
1.00137e-08
1.00136e-08
1.00136e-08
1.00135e-08
1.00135e-08
1.00134e-08
1.00134e-08
1.00133e-08
1.00133e-08
1.00132e-08
1.00132e-08
1.00131e-08
1.00131e-08
1.0013e-08
1.0013e-08
1.00129e-08
1.00129e-08
1.00128e-08
1.00128e-08
1.00127e-08
1.00127e-08
1.00126e-08
1.00125e-08
1.00124e-08
1.00124e-08
1.00123e-08
1.00122e-08
1.00122e-08
1.00121e-08
1.0012e-08
1.0012e-08
1.00119e-08
1.00118e-08
1.00118e-08
1.00117e-08
1.00117e-08
1.00116e-08
1.00116e-08
1.00116e-08
1.00116e-08
1.00116e-08
1.00115e-08
1.00115e-08
1.00115e-08
1.00115e-08
1.00115e-08
1.00115e-08
1.00114e-08
1.00114e-08
1.00114e-08
1.00113e-08
1.00113e-08
1.00112e-08
1.00112e-08
1.00112e-08
1.00111e-08
1.00111e-08
1.0011e-08
1.00109e-08
1.00109e-08
1.00109e-08
1.00108e-08
1.00108e-08
1.00107e-08
1.00107e-08
1.00106e-08
1.00106e-08
1.00105e-08
1.00105e-08
1.00104e-08
1.00104e-08
1.00103e-08
1.00103e-08
1.00102e-08
1.00102e-08
1.00101e-08
1.00101e-08
1.001e-08
1.001e-08
1.00099e-08
1.00099e-08
1.00098e-08
1.00098e-08
1.00097e-08
1.00097e-08
1.00096e-08
1.00095e-08
1.00095e-08
1.00094e-08
1.00094e-08
1.00093e-08
1.00093e-08
1.00092e-08
1.0009e-08
1.00089e-08
1.00089e-08
1.00087e-08
1.00074e-08
1.00075e-08
1.00087e-08
1.00086e-08
1.00086e-08
1.00086e-08
1.00086e-08
1.00086e-08
1.00085e-08
1.00084e-08
1.00083e-08
1.00083e-08
1.00082e-08
1.0008e-08
1.00079e-08
1.00079e-08
1.00078e-08
1.00076e-08
1.00073e-08
1.00073e-08
1.00076e-08
1.00075e-08
1.00075e-08
1.00075e-08
1.00075e-08
1.00074e-08
1.00074e-08
1.00072e-08
1.00069e-08
1.00068e-08
1.00074e-08
1.00072e-08
1.00079e-08
1.00074e-08
1.00059e-08
1.00068e-08
1.00064e-08
1.00091e-08
1.00092e-08
1.00115e-08
1.00111e-08
1.00087e-08
1.00093e-08
1.0009e-08
1.00089e-08
1.00088e-08
1.00086e-08
1.00081e-08
1.00078e-08
1.00073e-08
1.00068e-08
1.00065e-08
1.00061e-08
1.00056e-08
1.00052e-08
1.00049e-08
1.00045e-08
1.00041e-08
1.00038e-08
1.00036e-08
1.00034e-08
1.00031e-08
1.0003e-08
1.0003e-08
1.00032e-08
1.00034e-08
1.00036e-08
1.00038e-08
1.0004e-08
1.00041e-08
1.00042e-08
1.00042e-08
1.00043e-08
1.00043e-08
1.00044e-08
1.00045e-08
1.00047e-08
1.00048e-08
1.00048e-08
1.00048e-08
1.00047e-08
1.00046e-08
1.00045e-08
1.00045e-08
1.00045e-08
1.00046e-08
1.00047e-08
1.00048e-08
1.00048e-08
1.00048e-08
1.00048e-08
1.00047e-08
1.00047e-08
1.00047e-08
1.00047e-08
1.00046e-08
1.00045e-08
1.00044e-08
1.00044e-08
1.00044e-08
1.00046e-08
1.00047e-08
1.00047e-08
1.00046e-08
1.00044e-08
1.00041e-08
1.0004e-08
1.00039e-08
1.00039e-08
1.00041e-08
1.00043e-08
1.00043e-08
1.0004e-08
1.00038e-08
1.00039e-08
1.00044e-08
1.00045e-08
1.00038e-08
1.00037e-08
1.00036e-08
1.00039e-08
1.00036e-08
1.00036e-08
1.00036e-08
1.0004e-08
1.00041e-08
1.0004e-08
1.00031e-08
1.00072e-08
1.00044e-08
1.00214e-08
1.0024e-08
1.00271e-08
1.00306e-08
1.00342e-08
1.00376e-08
1.00408e-08
1.00436e-08
1.00459e-08
1.00478e-08
1.00492e-08
1.00502e-08
1.00509e-08
1.00513e-08
1.00516e-08
1.00517e-08
1.00517e-08
1.00516e-08
1.00516e-08
1.00516e-08
1.00516e-08
1.00515e-08
1.00515e-08
1.00515e-08
1.00514e-08
1.00514e-08
1.00513e-08
1.00512e-08
1.00512e-08
1.00511e-08
1.00511e-08
1.0051e-08
1.00509e-08
1.00508e-08
1.00508e-08
1.00507e-08
1.00506e-08
1.00504e-08
1.00501e-08
1.00498e-08
1.00495e-08
1.00492e-08
1.0049e-08
1.00487e-08
1.00486e-08
1.00484e-08
1.00483e-08
1.00481e-08
1.00478e-08
1.00474e-08
1.0047e-08
1.00466e-08
1.00462e-08
1.00459e-08
1.00457e-08
1.00453e-08
1.00449e-08
1.00444e-08
1.0044e-08
1.00437e-08
1.00433e-08
1.00431e-08
1.00431e-08
1.00433e-08
1.00436e-08
1.00439e-08
1.00445e-08
1.00454e-08
1.00466e-08
1.0048e-08
1.00496e-08
1.00517e-08
1.00546e-08
1.00586e-08
1.00652e-08
1.0077e-08
1.00981e-08
1.01333e-08
1.01912e-08
1.02804e-08
1.04074e-08
1.05679e-08
1.07053e-08
1.08329e-08
1.08871e-08
1.08539e-08
1.07739e-08
1.06527e-08
1.05124e-08
1.03912e-08
1.03093e-08
1.0262e-08
1.0229e-08
1.0196e-08
1.01534e-08
1.01114e-08
1.00762e-08
1.00539e-08
1.00416e-08
1.00359e-08
1.0034e-08
1.0034e-08
1.0035e-08
1.00336e-08
1.00326e-08
1.00317e-08
1.00306e-08
1.00299e-08
1.00297e-08
1.00304e-08
1.0031e-08
1.00321e-08
1.0034e-08
1.0034e-08
1.00323e-08
1.00306e-08
1.00294e-08
1.00284e-08
1.00276e-08
1.00269e-08
1.00264e-08
1.00262e-08
1.00261e-08
1.00262e-08
1.00263e-08
1.00264e-08
1.00267e-08
1.00269e-08
1.00277e-08
1.00286e-08
1.00283e-08
1.00275e-08
1.00268e-08
1.00261e-08
1.00255e-08
1.00251e-08
1.00248e-08
1.00245e-08
1.00243e-08
1.00242e-08
1.00242e-08
1.00241e-08
1.00241e-08
1.0024e-08
1.00239e-08
1.00238e-08
1.00237e-08
1.00236e-08
1.00236e-08
1.00235e-08
1.00234e-08
1.00234e-08
1.00233e-08
1.00233e-08
1.00233e-08
1.00233e-08
1.00232e-08
1.00232e-08
1.00232e-08
1.00232e-08
1.00232e-08
1.00232e-08
1.00232e-08
1.00231e-08
1.00231e-08
1.00231e-08
1.0023e-08
1.0023e-08
1.0023e-08
1.00229e-08
1.00229e-08
1.00228e-08
1.00228e-08
1.00227e-08
1.00226e-08
1.00226e-08
1.00225e-08
1.00225e-08
1.00224e-08
1.00224e-08
1.00223e-08
1.00222e-08
1.00222e-08
1.00221e-08
1.0022e-08
1.0022e-08
1.00219e-08
1.00219e-08
1.00218e-08
1.00217e-08
1.00217e-08
1.00216e-08
1.00216e-08
1.00215e-08
1.00215e-08
1.00214e-08
1.00214e-08
1.00213e-08
1.00213e-08
1.00212e-08
1.00211e-08
1.00211e-08
1.0021e-08
1.0021e-08
1.00209e-08
1.00208e-08
1.00208e-08
1.00207e-08
1.00206e-08
1.00206e-08
1.00205e-08
1.00204e-08
1.00204e-08
1.00203e-08
1.00202e-08
1.00202e-08
1.00201e-08
1.002e-08
1.002e-08
1.00199e-08
1.00199e-08
1.00198e-08
1.00197e-08
1.00196e-08
1.00196e-08
1.00195e-08
1.00194e-08
1.00194e-08
1.00193e-08
1.00193e-08
1.00192e-08
1.00191e-08
1.00191e-08
1.0019e-08
1.0019e-08
1.00189e-08
1.00189e-08
1.00188e-08
1.00188e-08
1.00188e-08
1.00187e-08
1.00186e-08
1.00186e-08
1.00185e-08
1.00184e-08
1.00183e-08
1.00182e-08
1.00182e-08
1.0018e-08
1.00179e-08
1.00179e-08