/*--------------------------------*- C++ -*----------------------------------*\
| =========                 |                                                 |
| \\      /  F ield         | OpenFOAM: The Open Source CFD Toolbox           |
|  \\    /   O peration     | Version:  v2006                                 |
|   \\  /    A nd           | Website:  www.openfoam.com                      |
|    \\/     M anipulation  |                                                 |
\*---------------------------------------------------------------------------*/
FoamFile
{
    version     2.0;
    format      ascii;
    class       volScalarField;
    location    "3.5";
    object      nut;
}
// * * * * * * * * * * * * * * * * * * * * * * * * * * * * * * * * * * * * * //

dimensions      [0 2 -1 0 0 0 0];


internalField   nonuniform List<scalar> 
33000
(
4.67906e-10
4.6883e-10
5.31429e-10
5.9012e-10
6.55685e-10
7.22635e-10
7.94885e-10
8.63277e-10
9.33342e-10
9.92992e-10
1.05131e-09
1.10043e-09
1.1478e-09
1.18834e-09
1.22537e-09
1.25696e-09
1.28466e-09
1.30861e-09
1.32601e-09
1.33888e-09
1.35202e-09
1.37052e-09
1.39534e-09
1.42254e-09
1.44384e-09
1.45567e-09
1.46277e-09
1.47839e-09
1.50098e-09
1.52308e-09
1.54187e-09
1.56575e-09
1.59989e-09
1.63441e-09
1.65936e-09
1.6723e-09
1.6872e-09
1.71329e-09
1.74872e-09
1.79052e-09
1.81977e-09
1.83178e-09
1.84864e-09
1.88526e-09
1.93761e-09
1.99806e-09
2.04075e-09
2.05988e-09
2.07689e-09
2.10199e-09
2.13488e-09
2.18469e-09
2.24597e-09
2.30011e-09
2.33426e-09
2.35652e-09
2.39248e-09
2.44804e-09
2.51539e-09
2.56684e-09
2.60285e-09
2.65142e-09
2.73652e-09
2.85252e-09
2.95991e-09
3.03272e-09
3.0885e-09
3.16495e-09
3.28008e-09
3.40925e-09
3.50043e-09
3.58709e-09
3.66291e-09
3.77936e-09
3.89987e-09
3.99802e-09
4.08321e-09
4.00998e-09
5.577e-09
7.36275e-09
7.13879e-09
7.66561e-09
6.8168e-09
7.76298e-09
7.51587e-09
7.85915e-09
7.87972e-09
7.64285e-09
7.30519e-09
7.3064e-09
7.45222e-09
7.69015e-09
7.95401e-09
8.07443e-09
8.19352e-09
8.38862e-09
8.55864e-09
8.53559e-09
7.51235e-09
6.0502e-09
5.33792e-09
5.37788e-09
5.64871e-09
5.44984e-09
4.86194e-09
4.65227e-09
4.77056e-09
4.92272e-09
5.03385e-09
5.41297e-09
5.69858e-09
5.81117e-09
6.01479e-09
6.22322e-09
6.50391e-09
6.84826e-09
7.03631e-09
6.97091e-09
6.77068e-09
6.97093e-09
7.58428e-09
8.02875e-09
8.12203e-09
8.53397e-09
9.01714e-09
9.6842e-09
1.08057e-08
1.21015e-08
1.33458e-08
1.49286e-08
1.67006e-08
1.89284e-08
2.2128e-08
2.62645e-08
3.12709e-08
3.63975e-08
3.8677e-08
3.88597e-08
3.90321e-08
3.54331e-08
3.06383e-08
2.66764e-08
2.34832e-08
2.08035e-08
1.8597e-08
1.68578e-08
1.5452e-08
1.42802e-08
1.32791e-08
1.24027e-08
1.16513e-08
1.1016e-08
1.04721e-08
9.98697e-09
9.54152e-09
9.13442e-09
8.78273e-09
8.47821e-09
8.19651e-09
7.93263e-09
7.68856e-09
7.47591e-09
7.28775e-09
7.1073e-09
6.93666e-09
6.78526e-09
6.65171e-09
6.52518e-09
6.40332e-09
6.29253e-09
6.19629e-09
6.10947e-09
6.02453e-09
5.94434e-09
5.87545e-09
5.81532e-09
5.75977e-09
5.7084e-09
5.66192e-09
5.62097e-09
5.58667e-09
5.55779e-09
5.53141e-09
5.50735e-09
5.48938e-09
5.47908e-09
5.46937e-09
5.45905e-09
5.45428e-09
5.4553e-09
5.45911e-09
5.4637e-09
5.47075e-09
5.48215e-09
5.49567e-09
5.51085e-09
5.52691e-09
5.54555e-09
5.56885e-09
5.59154e-09
5.61352e-09
5.63795e-09
5.66681e-09
5.69871e-09
5.7304e-09
5.76221e-09
5.79356e-09
5.82853e-09
5.86842e-09
5.90938e-09
5.948e-09
5.98737e-09
6.03198e-09
6.07849e-09
6.12641e-09
6.17229e-09
6.21723e-09
6.26786e-09
6.32055e-09
6.37681e-09
6.43372e-09
6.4863e-09
6.53979e-09
6.59873e-09
6.66125e-09
6.72212e-09
6.78526e-09
6.85209e-09
6.91568e-09
6.9775e-09
7.04705e-09
7.12042e-09
7.19308e-09
7.26932e-09
7.33885e-09
7.41002e-09
7.49178e-09
7.5761e-09
7.65824e-09
7.74023e-09
7.82888e-09
7.91899e-09
8.00902e-09
8.10093e-09
8.20058e-09
8.29355e-09
8.39397e-09
8.50951e-09
8.61493e-09
8.71936e-09
8.83575e-09
8.95597e-09
9.08045e-09
9.20445e-09
9.33252e-09
9.47656e-09
9.61763e-09
9.75433e-09
9.90634e-09
1.007e-08
1.02391e-08
1.04021e-08
1.05694e-08
1.07589e-08
1.09549e-08
1.1158e-08
1.13761e-08
1.16002e-08
1.1817e-08
1.20502e-08
1.2306e-08
1.25805e-08
1.28682e-08
1.3166e-08
1.3481e-08
1.38093e-08
1.41567e-08
1.45347e-08
1.49317e-08
1.53462e-08
1.57886e-08
1.62908e-08
1.68186e-08
1.73707e-08
1.79625e-08
1.85978e-08
1.93012e-08
2.00841e-08
2.09339e-08
2.18668e-08
2.28883e-08
2.39655e-08
2.38599e-08
2.37385e-08
2.36221e-08
2.3512e-08
2.34071e-08
2.3308e-08
2.32153e-08
2.31282e-08
2.30467e-08
2.29713e-08
2.29012e-08
2.28371e-08
2.2779e-08
2.27258e-08
2.26775e-08
2.26331e-08
2.25951e-08
2.25623e-08
2.25327e-08
2.25069e-08
2.24833e-08
2.24617e-08
2.24391e-08
2.24145e-08
2.23878e-08
2.23588e-08
2.23282e-08
2.22958e-08
2.22608e-08
2.22235e-08
2.21831e-08
2.21414e-08
2.20979e-08
2.20516e-08
2.2002e-08
2.19503e-08
2.18974e-08
2.18416e-08
2.17835e-08
2.17227e-08
2.16591e-08
2.15926e-08
2.15235e-08
2.14518e-08
2.13777e-08
2.13009e-08
2.12217e-08
2.11399e-08
2.10558e-08
2.09698e-08
2.0882e-08
2.07919e-08
2.06997e-08
2.06052e-08
2.05087e-08
2.04105e-08
2.03106e-08
2.02089e-08
2.01051e-08
1.99999e-08
1.98937e-08
1.9786e-08
1.96771e-08
1.9567e-08
1.94561e-08
1.93443e-08
1.92316e-08
1.91179e-08
1.90034e-08
1.88885e-08
1.8773e-08
1.86571e-08
1.8541e-08
1.84245e-08
1.83082e-08
1.81918e-08
1.80754e-08
1.79591e-08
1.78426e-08
1.77261e-08
1.76099e-08
1.74939e-08
1.73784e-08
1.72631e-08
1.71484e-08
1.70344e-08
1.69211e-08
1.68084e-08
1.66963e-08
1.65848e-08
1.64741e-08
1.63643e-08
1.62555e-08
1.61478e-08
1.6041e-08
1.59354e-08
1.58306e-08
1.5727e-08
1.56243e-08
1.55227e-08
1.54219e-08
1.53223e-08
1.52241e-08
1.51268e-08
1.50309e-08
1.49361e-08
1.48424e-08
1.47496e-08
1.4658e-08
1.45674e-08
1.4478e-08
1.43898e-08
1.4303e-08
1.42173e-08
1.41331e-08
1.40501e-08
1.39681e-08
1.38877e-08
1.38084e-08
1.37304e-08
1.36535e-08
1.35775e-08
1.35035e-08
1.34289e-08
1.33559e-08
1.32835e-08
1.32103e-08
1.31399e-08
1.30745e-08
1.30026e-08
1.29383e-08
1.28706e-08
1.27831e-08
1.27212e-08
1.26771e-08
1.25909e-08
1.25842e-08
1.25347e-08
1.26267e-08
1.25731e-08
1.25774e-08
1.25299e-08
1.25014e-08
1.24531e-08
1.24139e-08
1.23664e-08
1.23235e-08
1.22748e-08
1.22287e-08
1.21811e-08
1.2126e-08
1.20789e-08
1.20382e-08
1.19818e-08
1.19522e-08
1.19066e-08
1.19073e-08
1.18629e-08
1.18336e-08
1.1794e-08
1.17563e-08
1.17182e-08
1.16804e-08
1.16433e-08
1.16053e-08
1.15592e-08
1.15196e-08
1.14909e-08
1.14383e-08
1.14182e-08
1.13778e-08
1.12598e-08
1.1233e-08
1.12454e-08
1.11145e-08
1.13677e-08
1.1339e-08
1.22818e-08
1.22671e-08
1.25586e-08
1.26759e-08
1.27698e-08
1.28319e-08
1.28739e-08
1.29019e-08
1.29198e-08
1.293e-08
1.29342e-08
1.29338e-08
1.29295e-08
1.29218e-08
1.29116e-08
1.28993e-08
1.28851e-08
1.28693e-08
1.28519e-08
1.2833e-08
1.28127e-08
1.27913e-08
1.2769e-08
1.27461e-08
1.27225e-08
1.26985e-08
1.26738e-08
1.26486e-08
1.26228e-08
1.25962e-08
1.25689e-08
1.25407e-08
1.25116e-08
1.24815e-08
1.24505e-08
1.24188e-08
1.23867e-08
1.23543e-08
1.23219e-08
1.22896e-08
1.22575e-08
1.22258e-08
1.21944e-08
1.21635e-08
1.2133e-08
1.21029e-08
1.20731e-08
1.20434e-08
1.20138e-08
1.19842e-08
1.19545e-08
1.19247e-08
1.18948e-08
1.1865e-08
1.18353e-08
1.18061e-08
1.17772e-08
1.17487e-08
1.17202e-08
1.16913e-08
1.16625e-08
1.16342e-08
1.16066e-08
1.15794e-08
1.1552e-08
1.15244e-08
1.14968e-08
1.14699e-08
1.14434e-08
1.14166e-08
1.13895e-08
1.13621e-08
1.13352e-08
1.13089e-08
1.12824e-08
1.12549e-08
1.12289e-08
1.12033e-08
1.113e-08
1.13216e-08
1.08672e-08
1.71953e-09
2.09859e-09
5.53811e-09
1.2993e-08
1.30357e-08
1.20656e-08
1.12756e-08
9.77899e-09
9.79618e-09
1.0679e-08
1.07774e-08
1.14992e-08
1.10961e-08
1.15624e-08
1.13334e-08
1.12201e-08
1.10321e-08
1.10673e-08
1.08052e-08
1.06788e-08
1.04528e-08
1.03771e-08
1.07565e-08
1.09424e-08
1.05199e-08
1.01833e-08
9.429e-09
9.41892e-09
9.83222e-09
1.04339e-08
1.06387e-08
9.60113e-09
8.65781e-09
7.94274e-09
8.69834e-09
1.08054e-08
1.23732e-08
1.12471e-08
9.03005e-09
7.59847e-09
7.80637e-09
8.87953e-09
8.99803e-09
8.42496e-09
7.54634e-09
7.29633e-09
8.04463e-09
8.84234e-09
8.68316e-09
7.67321e-09
6.99707e-09
6.94821e-09
7.16081e-09
7.73156e-09
8.38608e-09
7.97066e-09
7.19941e-09
6.8779e-09
7.17578e-09
7.52257e-09
7.04623e-09
6.32745e-09
6.22828e-09
6.73331e-09
7.46336e-09
7.37412e-09
6.586e-09
6.52549e-09
7.09683e-09
8.0646e-09
7.88355e-09
7.62484e-09
6.78743e-09
6.65792e-09
6.92607e-09
7.4354e-09
6.70478e-09
9.06537e-09
1.04275e-08
1.12586e-08
8.58488e-09
1.04411e-08
2.23109e-08
1.90565e-08
2.96117e-08
2.36733e-08
1.08773e-08
1.09445e-08
1.08622e-08
1.44178e-08
1.46878e-08
1.7917e-08
1.87926e-08
2.10102e-08
2.20651e-08
1.97249e-08
1.87669e-08
1.43384e-08
9.554e-09
9.65977e-09
1.0126e-08
8.67781e-09
5.78377e-09
6.2049e-09
7.77407e-09
8.43883e-09
8.46639e-09
1.25279e-08
9.67506e-09
8.69482e-09
1.3153e-08
1.46383e-08
1.47252e-08
1.51825e-08
1.30093e-08
1.2544e-08
1.22529e-08
1.5198e-08
1.76672e-08
2.63496e-08
3.35907e-08
3.18635e-08
1.9027e-08
1.5378e-08
1.4459e-08
1.15918e-08
1.10843e-08
1.26147e-08
1.27933e-08
1.32055e-08
1.35563e-08
1.30618e-08
1.29578e-08
1.32632e-08
1.35126e-08
1.36878e-08
1.39206e-08
1.43876e-08
1.46189e-08
1.47919e-08
1.5173e-08
1.57079e-08
1.61623e-08
1.65406e-08
1.70716e-08
1.77638e-08
1.83296e-08
1.87015e-08
1.92551e-08
1.99808e-08
2.07923e-08
2.15442e-08
2.21591e-08
2.27335e-08
2.34371e-08
2.43944e-08
2.55283e-08
2.63702e-08
2.70582e-08
2.79886e-08
2.92471e-08
3.0692e-08
3.20414e-08
3.31735e-08
3.45406e-08
3.65266e-08
3.87465e-08
4.04854e-08
4.2236e-08
4.50999e-08
4.85932e-08
5.17094e-08
5.4301e-08
5.85385e-08
6.40625e-08
6.94031e-08
7.53121e-08
8.31163e-08
9.21259e-08
1.02286e-07
1.14261e-07
1.30974e-07
1.538e-07
1.84425e-07
2.27465e-07
2.99857e-07
3.1194e-07
3.12505e-07
3.09372e-07
3.0864e-07
3.11892e-07
3.14045e-07
2.4901e-07
2.14924e-07
1.92841e-07
1.73102e-07
1.50474e-07
1.30719e-07
1.21712e-07
1.1644e-07
1.09947e-07
1.02416e-07
9.40229e-08
9.00439e-08
8.81838e-08
8.53389e-08
8.14039e-08
7.71913e-08
7.54058e-08
7.47378e-08
7.28047e-08
6.99477e-08
6.86648e-08
6.81129e-08
6.69211e-08
6.64332e-08
6.54789e-08
6.44213e-08
6.32623e-08
6.22524e-08
6.25493e-08
6.23736e-08
6.2031e-08
6.14565e-08
6.07732e-08
6.08247e-08
6.06859e-08
6.03659e-08
6.06275e-08
6.07471e-08
6.0018e-08
5.99146e-08
6.01614e-08
6.02435e-08
6.08949e-08
6.11661e-08
6.05962e-08
5.94967e-08
5.95857e-08
6.00676e-08
6.08884e-08
6.13044e-08
6.08135e-08
6.09513e-08
6.14567e-08
6.15626e-08
6.04875e-08
6.05784e-08
6.1842e-08
6.20641e-08
6.17956e-08
6.20204e-08
6.17121e-08
6.21788e-08
6.26302e-08
6.26174e-08
6.25404e-08
6.18914e-08
6.20128e-08
6.3341e-08
6.38188e-08
6.37215e-08
6.33281e-08
6.32084e-08
6.31405e-08
6.36226e-08
6.41087e-08
6.47909e-08
6.50694e-08
6.4821e-08
6.46836e-08
6.47704e-08
6.51924e-08
6.53755e-08
6.53009e-08
6.59403e-08
6.64854e-08
6.69855e-08
6.70827e-08
6.73146e-08
6.73581e-08
6.71397e-08
6.83355e-08
6.91447e-08
6.92617e-08
6.96306e-08
7.00153e-08
7.03758e-08
7.12593e-08
7.18288e-08
7.25115e-08
7.33045e-08
7.37155e-08
7.44024e-08
7.55237e-08
7.62397e-08
7.68612e-08
7.78274e-08
7.90024e-08
8.02575e-08
8.13974e-08
8.26149e-08
8.37941e-08
8.51291e-08
8.71664e-08
8.86747e-08
9.03443e-08
9.23768e-08
9.39698e-08
9.64717e-08
9.8814e-08
1.01189e-07
1.03713e-07
1.06603e-07
1.09652e-07
1.12712e-07
1.15938e-07
1.19247e-07
1.2307e-07
1.2717e-07
1.31263e-07
1.35648e-07
1.4015e-07
1.44673e-07
1.50593e-07
1.56445e-07
1.62428e-07
1.68807e-07
1.75533e-07
1.8306e-07
1.91414e-07
2.00142e-07
2.09472e-07
2.19893e-07
2.31244e-07
2.43232e-07
2.56125e-07
2.70416e-07
2.85991e-07
3.03265e-07
3.22542e-07
3.42946e-07
3.65189e-07
3.91455e-07
4.20952e-07
4.54079e-07
4.90596e-07
5.32517e-07
5.80018e-07
6.35793e-07
7.01184e-07
7.75082e-07
8.68569e-07
8.76776e-07
8.78607e-07
8.8023e-07
8.81642e-07
8.83068e-07
8.84389e-07
8.85541e-07
8.86544e-07
8.87552e-07
8.88338e-07
8.88927e-07
8.89479e-07
8.89965e-07
8.9046e-07
8.91061e-07
8.91643e-07
8.92263e-07
8.92944e-07
8.93579e-07
8.94143e-07
8.94623e-07
8.95072e-07
8.95481e-07
8.95868e-07
8.96288e-07
8.96663e-07
8.97059e-07
8.97507e-07
8.97094e-07
8.73271e-07
8.55467e-07
8.40886e-07
8.19007e-07
8.02513e-07
7.89904e-07
7.77043e-07
7.65707e-07
7.55435e-07
7.46153e-07
7.40367e-07
7.33985e-07
7.23319e-07
7.1551e-07
7.10134e-07
7.02848e-07
6.99459e-07
6.92579e-07
6.90353e-07
6.84391e-07
6.84015e-07
6.78901e-07
6.81659e-07
6.71665e-07
6.82152e-07
6.73902e-07
6.90069e-07
7.12488e-07
7.13076e-07
7.28757e-07
6.83623e-07
6.92507e-07
6.32117e-07
6.50808e-07
7.67287e-07
7.66294e-07
6.65362e-07
6.50107e-07
3.84728e-07
4.18711e-07
4.98783e-07
5.54845e-07
5.61801e-07
5.02961e-07
1.82498e-07
1.86782e-07
4.04522e-07
4.00989e-07
2.98747e-07
3.57535e-07
6.28252e-07
7.63498e-07
8.90294e-07
8.89585e-07
8.90087e-07
8.90557e-07
6.26464e-07
6.29086e-07
7.64536e-07
8.04901e-07
8.86936e-07
8.85636e-07
5.68453e-07
5.67737e-07
7.4271e-07
6.16683e-07
4.73122e-07
6.09592e-07
6.47685e-07
7.5638e-07
5.04191e-07
6.26437e-07
7.50476e-07
7.39871e-07
8.83626e-07
8.2328e-07
6.85552e-07
1.96006e-07
2.19516e-07
1.38046e-07
1.592e-07
6.75991e-08
6.56372e-08
2.87892e-08
2.7715e-08
5.68873e-08
5.88896e-08
5.60928e-08
6.7907e-08
1.09327e-07
1.45594e-07
1.95302e-07
2.52194e-07
3.19737e-07
4.01673e-07
5.04241e-07
6.3346e-07
7.93469e-07
8.63903e-07
8.71112e-07
8.75335e-07
8.7729e-07
8.77783e-07
8.78161e-07
8.78892e-07
8.79813e-07
8.80596e-07
8.81049e-07
8.81141e-07
8.8093e-07
8.80557e-07
8.80171e-07
8.79894e-07
8.79832e-07
8.80206e-07
8.47641e-07
8.15029e-07
7.85461e-07
7.59285e-07
7.36379e-07
7.16244e-07
6.98183e-07
6.81461e-07
6.66174e-07
6.51851e-07
6.41606e-07
6.35364e-07
6.30569e-07
6.27865e-07
6.27319e-07
6.27523e-07
6.2679e-07
6.24221e-07
6.20175e-07
6.15625e-07
6.11039e-07
6.0594e-07
5.9968e-07
5.92989e-07
5.88364e-07
5.8825e-07
5.92399e-07
5.9649e-07
5.95609e-07
5.91389e-07
5.90829e-07
5.98125e-07
6.11798e-07
6.21729e-07
6.09617e-07
5.94013e-07
5.95462e-07
6.11877e-07
6.25119e-07
6.111e-07
5.88191e-07
5.91159e-07
6.08071e-07
6.07883e-07
5.86441e-07
5.89954e-07
6.12431e-07
6.26204e-07
6.88159e-07
2.77334e-07
1.85947e-07
7.74749e-08
1.61371e-07
1.53109e-09
1.9328e-09
5.0849e-09
1.17714e-08
1.18243e-08
1.10217e-08
1.01016e-08
8.70245e-09
8.6901e-09
9.48613e-09
9.4556e-09
9.76768e-09
9.26354e-09
9.52845e-09
9.11323e-09
8.99686e-09
8.95152e-09
8.71023e-09
8.40493e-09
8.36735e-09
8.50981e-09
8.77893e-09
8.90465e-09
7.93626e-09
7.07986e-09
6.73825e-09
6.94073e-09
7.69679e-09
7.93269e-09
7.36782e-09
7.3599e-09
6.87233e-09
6.41924e-09
5.91761e-09
5.79229e-09
6.67076e-09
8.03068e-09
7.81277e-09
7.04941e-09
5.72224e-09
5.2807e-09
5.75494e-09
6.08951e-09
6.57147e-09
6.43171e-09
5.52953e-09
5.10612e-09
5.12482e-09
5.34992e-09
5.68286e-09
6.04178e-09
6.05501e-09
5.54057e-09
5.22691e-09
5.40188e-09
5.6712e-09
5.82895e-09
5.85881e-09
5.5209e-09
5.28532e-09
4.97522e-09
4.9153e-09
5.27442e-09
5.18765e-09
4.91272e-09
4.49934e-09
4.28752e-09
4.95223e-09
5.53722e-09
5.27894e-09
5.03682e-09
5.03671e-09
5.40103e-09
5.77347e-09
5.92913e-09
6.48996e-09
1.10208e-08
1.91125e-08
1.8546e-08
1.04264e-08
1.48965e-08
1.47347e-08
1.52608e-08
8.38215e-09
7.44332e-09
1.12904e-08
9.34478e-09
6.33932e-09
1.76535e-08
1.54489e-08
1.0509e-08
9.70505e-09
1.10241e-08
1.20385e-08
1.39819e-08
1.39111e-08
1.23847e-08
1.19852e-08
9.17314e-09
7.79783e-09
7.49217e-09
6.27336e-09
5.03998e-09
5.06867e-09
4.55462e-09
4.02067e-09
4.2339e-09
5.40844e-09
7.26756e-09
6.78437e-09
7.02237e-09
7.41894e-09
7.47435e-09
1.15064e-08
1.35422e-08
1.40775e-08
1.20873e-08
9.59288e-09
9.7982e-09
1.065e-08
1.37761e-08
1.61291e-08
2.59857e-08
2.35531e-08
2.90746e-08
1.96797e-08
1.60324e-08
1.46056e-08
1.12041e-08
1.06028e-08
1.21704e-08
1.24929e-08
1.33982e-08
1.35618e-08
1.35086e-08
1.30454e-08
1.2823e-08
1.33536e-08
1.36128e-08
1.41232e-08
1.47558e-08
1.50513e-08
1.52899e-08
1.57064e-08
1.622e-08
1.68186e-08
1.73818e-08
1.77829e-08
1.83419e-08
1.90763e-08
1.9791e-08
2.03737e-08
2.08275e-08
2.14185e-08
2.2399e-08
2.34228e-08
2.4167e-08
2.49177e-08
2.56815e-08
2.65953e-08
2.77415e-08
2.88496e-08
3.02057e-08
3.1667e-08
3.29889e-08
3.44269e-08
3.62531e-08
3.8336e-08
4.02585e-08
4.25238e-08
4.51982e-08
4.85634e-08
5.17678e-08
5.51344e-08
5.9495e-08
6.45337e-08
7.01995e-08
7.7533e-08
8.53341e-08
9.39655e-08
1.04382e-07
1.176e-07
1.36681e-07
1.59643e-07
1.85927e-07
2.32352e-07
2.81164e-07
2.90287e-07
3.01748e-07
3.12682e-07
2.91711e-07
2.44524e-07
2.04186e-07
1.84378e-07
1.71605e-07
1.57124e-07
1.36795e-07
1.21012e-07
1.12931e-07
1.07138e-07
1.01079e-07
9.46267e-08
8.93825e-08
8.59932e-08
8.33733e-08
7.94432e-08
7.53444e-08
7.34941e-08
7.29524e-08
7.13966e-08
6.8415e-08
6.64427e-08
6.58495e-08
6.51787e-08
6.39762e-08
6.31457e-08
6.26487e-08
6.17837e-08
6.05243e-08
6.06299e-08
6.10003e-08
5.93539e-08
5.88499e-08
5.9382e-08
5.94365e-08
5.93705e-08
5.88166e-08
5.84292e-08
5.80031e-08
5.8326e-08
5.91127e-08
5.86549e-08
5.83335e-08
5.8511e-08
5.90703e-08
5.93604e-08
5.87841e-08
5.80347e-08
5.80888e-08
5.92882e-08
6.02429e-08
5.99469e-08
5.87418e-08
5.93209e-08
6.02451e-08
5.93867e-08
5.94795e-08
6.04386e-08
6.05076e-08
6.04606e-08
6.02472e-08
6.06088e-08
6.10448e-08
6.12376e-08
6.15208e-08
6.17112e-08
6.06857e-08
6.0049e-08
6.12336e-08
6.26945e-08
6.27987e-08
6.21135e-08
6.22557e-08
6.27655e-08
6.25215e-08
6.27565e-08
6.30242e-08
6.3364e-08
6.34301e-08
6.30707e-08
6.31731e-08
6.41795e-08
6.54297e-08
6.55062e-08
6.41643e-08
6.4094e-08
6.53663e-08
6.63733e-08
6.63779e-08
6.60611e-08
6.65669e-08
6.72773e-08
6.78464e-08
6.80988e-08
6.78697e-08
6.80878e-08
6.96167e-08
7.0691e-08
7.08121e-08
7.08875e-08
7.12221e-08
7.18919e-08
7.29915e-08
7.42077e-08
7.52291e-08
7.56362e-08
7.59967e-08
7.71393e-08
7.8566e-08
7.96747e-08
8.09119e-08
8.20275e-08
8.30421e-08
8.49456e-08
8.67849e-08
8.80571e-08
8.9409e-08
9.16153e-08
9.3816e-08
9.58175e-08
9.80445e-08
1.00251e-07
1.02849e-07
1.05905e-07
1.08696e-07
1.11688e-07
1.14822e-07
1.18354e-07
1.22173e-07
1.26153e-07
1.30496e-07
1.34145e-07
1.38557e-07
1.44135e-07
1.49603e-07
1.55028e-07
1.60757e-07
1.67561e-07
1.7462e-07
1.82233e-07
1.90819e-07
1.99097e-07
2.07744e-07
2.18244e-07
2.29743e-07
2.41331e-07
2.53971e-07
2.68059e-07
2.8286e-07
2.994e-07
3.19578e-07
3.41195e-07
3.63816e-07
3.89353e-07
4.17489e-07
4.48529e-07
4.83293e-07
5.25074e-07
5.71663e-07
6.19897e-07
6.83641e-07
7.64604e-07
8.4773e-07
9.4651e-07
1.06332e-06
1.21713e-06
1.43372e-06
1.69374e-06
1.97792e-06
2.29059e-06
2.68446e-06
3.09981e-06
3.45631e-06
3.38404e-06
3.09873e-06
2.80647e-06
2.35971e-06
2.05307e-06
1.86687e-06
1.68511e-06
1.54631e-06
1.42717e-06
1.32469e-06
1.2445e-06
1.18079e-06
1.12437e-06
1.05757e-06
1.00348e-06
9.73321e-07
9.45306e-07
9.21164e-07
8.9609e-07
8.7197e-07
8.51391e-07
8.31789e-07
8.13177e-07
7.99354e-07
7.89006e-07
7.77207e-07
7.65272e-07
7.53077e-07
7.49938e-07
7.44014e-07
7.31966e-07
7.21272e-07
7.16505e-07
7.04245e-07
7.0006e-07
6.95381e-07
6.96138e-07
6.90331e-07
6.90334e-07
6.77018e-07
6.79164e-07
6.71237e-07
6.82611e-07
7.08856e-07
7.09286e-07
7.11302e-07
6.90188e-07
6.93015e-07
6.42503e-07
6.64111e-07
8.05884e-07
8.09136e-07
6.73467e-07
6.56277e-07
3.79262e-07
4.26651e-07
4.99663e-07
5.48149e-07
5.21384e-07
4.64599e-07
1.68097e-07
1.83804e-07
4.93132e-07
4.97874e-07
3.8672e-07
3.89953e-07
3.55503e-07
3.61124e-07
6.11539e-07
7.32313e-07
8.63933e-07
5.96356e-07
6.2775e-07
1.04442e-06
7.07006e-07
8.1669e-07
9.43833e-07
1.05337e-06
4.64478e-07
5.21054e-07
8.23036e-07
8.32214e-07
5.43296e-07
6.02973e-07
4.41521e-07
4.93879e-07
4.37766e-07
5.50092e-07
6.09712e-07
9.0908e-07
6.51138e-07
8.69313e-07
7.30966e-07
2.00125e-07
2.3279e-07
1.27851e-07
1.42614e-07
6.15251e-08
5.78958e-08
2.64496e-08
2.67143e-08
5.87001e-08
5.97908e-08
6.15409e-08
6.72826e-08
8.89461e-08
1.14109e-07
1.63623e-07
1.95722e-07
2.18633e-07
2.57189e-07
3.07714e-07
3.71961e-07
4.52388e-07
5.56042e-07
6.88883e-07
8.50255e-07
1.03929e-06
1.2599e-06
1.48804e-06
1.65664e-06
1.69528e-06
1.60449e-06
1.4674e-06
1.34317e-06
1.24288e-06
1.16314e-06
1.09977e-06
1.04497e-06
9.94091e-07
9.46135e-07
9.01831e-07
8.61583e-07
8.27028e-07
7.97931e-07
7.74882e-07
7.58089e-07
7.46212e-07
7.36658e-07
7.2688e-07
7.1534e-07
7.01548e-07
6.86432e-07
6.71618e-07
6.58356e-07
6.48134e-07
6.41913e-07
6.38762e-07
6.36436e-07
6.32866e-07
6.27289e-07
6.20798e-07
6.15563e-07
6.12976e-07
6.12212e-07
6.10631e-07
6.06044e-07
5.9908e-07
5.92803e-07
5.89727e-07
5.90082e-07
5.92323e-07
5.95674e-07
6.0184e-07
6.11873e-07
6.20275e-07
6.16081e-07
5.98503e-07
5.83948e-07
5.90575e-07
6.14066e-07
6.2538e-07
6.0274e-07
5.73734e-07
5.83557e-07
6.24375e-07
6.37827e-07
6.04733e-07
5.9586e-07
6.35217e-07
6.49535e-07
6.13915e-07
6.74374e-07
2.78119e-07
1.85164e-07
7.79744e-08
1.65681e-07
1.37685e-09
1.83697e-09
4.92376e-09
1.0832e-08
1.06417e-08
1.00382e-08
9.38546e-09
8.29308e-09
8.41644e-09
9.54267e-09
9.68568e-09
1.01177e-08
9.63119e-09
9.6714e-09
9.08026e-09
9.00639e-09
9.11805e-09
9.06004e-09
8.71912e-09
8.4118e-09
8.40343e-09
8.45426e-09
8.09698e-09
7.31969e-09
6.84587e-09
6.8533e-09
7.38879e-09
7.88899e-09
7.3599e-09
6.32616e-09
6.06507e-09
6.22931e-09
6.69006e-09
6.98893e-09
6.117e-09
5.58949e-09
5.46453e-09
5.56842e-09
5.92759e-09
6.20858e-09
5.71107e-09
5.29142e-09
5.33357e-09
6.01221e-09
6.42443e-09
5.86171e-09
5.05589e-09
4.68418e-09
4.93133e-09
5.79225e-09
6.46295e-09
6.25648e-09
5.56436e-09
4.94794e-09
4.7824e-09
5.08053e-09
5.69018e-09
6.04176e-09
5.38259e-09
4.84978e-09
4.69203e-09
4.88504e-09
5.37224e-09
5.05556e-09
4.44421e-09
4.03157e-09
4.23132e-09
4.92081e-09
5.03076e-09
4.6095e-09
4.4053e-09
4.61879e-09
5.67575e-09
6.35301e-09
5.92592e-09
5.91362e-09
6.21531e-09
8.50801e-09
9.99075e-09
1.7149e-08
2.08909e-08
3.59032e-08
1.29523e-08
1.47607e-08
1.23561e-08
8.38202e-09
6.87161e-09
3.83585e-09
3.20701e-09
5.64487e-09
4.44586e-09
3.4591e-08
4.645e-08
8.9728e-09
8.3764e-09
8.90955e-09
9.48776e-09
1.00603e-08
8.72831e-09
8.13916e-09
9.82661e-09
8.6926e-09
7.31412e-09
5.98698e-09
5.88184e-09
5.19899e-09
4.77403e-09
4.76631e-09
4.33637e-09
3.3121e-09
3.9462e-09
4.65629e-09
5.63762e-09
6.66149e-09
7.20922e-09
7.17602e-09
1.07241e-08
1.21183e-08
1.31178e-08
1.13023e-08
8.84178e-09
9.50888e-09
1.09965e-08
1.41425e-08
1.67067e-08
2.64325e-08
2.01471e-08
3.10574e-08
2.14914e-08
1.73605e-08
1.56212e-08
1.15942e-08
1.08598e-08
1.23694e-08
1.31283e-08
1.34833e-08
1.37583e-08
1.41801e-08
1.37294e-08
1.3607e-08
1.41992e-08
1.45747e-08
1.51625e-08
1.57679e-08
1.60324e-08
1.63748e-08
1.70014e-08
1.76532e-08
1.82636e-08
1.88012e-08
1.93713e-08
2.00271e-08
2.05465e-08
2.12247e-08
2.22672e-08
2.31541e-08
2.36731e-08
2.44644e-08
2.54965e-08
2.64455e-08
2.73248e-08
2.82425e-08
2.95415e-08
3.12441e-08
3.27631e-08
3.38576e-08
3.52647e-08
3.75245e-08
3.98589e-08
4.17325e-08
4.38217e-08
4.74163e-08
5.12171e-08
5.34602e-08
5.69464e-08
6.26667e-08
6.87492e-08
7.41121e-08
7.9745e-08
8.86781e-08
1.00365e-07
1.10792e-07
1.23815e-07
1.3923e-07
1.57815e-07
1.87462e-07
2.13969e-07
2.13212e-07
2.17581e-07
2.2965e-07
2.22984e-07
1.9817e-07
1.77998e-07
1.64307e-07
1.52208e-07
1.41057e-07
1.26737e-07
1.16862e-07
1.09137e-07
1.01707e-07
9.64463e-08
9.1596e-08
8.86313e-08
8.45105e-08
7.9971e-08
7.59014e-08
7.34989e-08
7.44169e-08
7.34605e-08
6.92457e-08
6.63538e-08
6.62717e-08
6.58982e-08
6.43217e-08
6.29321e-08
6.23322e-08
6.18919e-08
6.0852e-08
6.05102e-08
6.09227e-08
6.05687e-08
5.88424e-08
5.80688e-08
5.88227e-08
5.95157e-08
5.96957e-08
5.88953e-08
5.81672e-08
5.73511e-08
5.74374e-08
5.91531e-08
5.89983e-08
5.80511e-08
5.80547e-08
5.90469e-08
5.8835e-08
5.80446e-08
5.83243e-08
5.88842e-08
6.00381e-08
6.00871e-08
5.89272e-08
5.86689e-08
5.94508e-08
5.92078e-08
5.89547e-08
6.04463e-08
6.14797e-08
6.04978e-08
5.98689e-08
6.00226e-08
6.0056e-08
6.08441e-08
6.17099e-08
6.14562e-08
6.08932e-08
6.03342e-08
6.10224e-08
6.21817e-08
6.23057e-08
6.20859e-08
6.17942e-08
6.20928e-08
6.29621e-08
6.326e-08
6.30744e-08
6.27647e-08
6.28275e-08
6.27976e-08
6.27965e-08
6.31742e-08
6.4278e-08
6.57324e-08
6.60556e-08
6.47722e-08
6.41799e-08
6.49745e-08
6.58647e-08
6.60734e-08
6.59217e-08
6.69813e-08
6.84246e-08
6.76139e-08
6.73208e-08
6.779e-08
6.84047e-08
7.00975e-08
7.10184e-08
7.03752e-08
7.05832e-08
7.13553e-08
7.18231e-08
7.29365e-08
7.44009e-08
7.51993e-08
7.54614e-08
7.63393e-08
7.75613e-08
7.85658e-08
7.94848e-08
8.07356e-08
8.19937e-08
8.34316e-08
8.53413e-08
8.6351e-08
8.77062e-08
8.94539e-08
9.17598e-08
9.39019e-08
9.5349e-08
9.74242e-08
9.9819e-08
1.02716e-07
1.05492e-07
1.07916e-07
1.10863e-07
1.14261e-07
1.18069e-07
1.21226e-07
1.24836e-07
1.29502e-07
1.33251e-07
1.37785e-07
1.43353e-07
1.4794e-07
1.53547e-07
1.59949e-07
1.66333e-07
1.73168e-07
1.80614e-07
1.8887e-07
1.97313e-07
2.06094e-07
2.16475e-07
2.27486e-07
2.3863e-07
2.50824e-07
2.64493e-07
2.7926e-07
2.95895e-07
3.15207e-07
3.36023e-07
3.58677e-07
3.82806e-07
4.11047e-07
4.42437e-07
4.73156e-07
5.10386e-07
5.54092e-07
5.99836e-07
6.63065e-07
7.40566e-07
8.08399e-07
8.92633e-07
9.95102e-07
1.12489e-06
1.28789e-06
1.48752e-06
1.71854e-06
1.91554e-06
2.07057e-06
2.25069e-06
2.47958e-06
2.50131e-06
2.38237e-06
2.20486e-06
1.96278e-06
1.82321e-06
1.70088e-06
1.5567e-06
1.45417e-06
1.35845e-06
1.26957e-06
1.19672e-06
1.14172e-06
1.08727e-06
1.02531e-06
9.8774e-07
9.63112e-07
9.32872e-07
9.06766e-07
8.82218e-07
8.61189e-07
8.40488e-07
8.19414e-07
8.0732e-07
7.95836e-07
7.84702e-07
7.74761e-07
7.62616e-07
7.5208e-07
7.45198e-07
7.38966e-07
7.2385e-07
7.20319e-07
7.11927e-07
7.05298e-07
6.98024e-07
6.98031e-07
6.85468e-07
6.86462e-07
6.72806e-07
6.78419e-07
6.80358e-07
6.85093e-07
6.37407e-07
6.63348e-07
5.94127e-07
6.54639e-07
7.93907e-07
8.52118e-07
9.50126e-07
6.8142e-07
6.79901e-07
3.75992e-07
4.31953e-07
4.84899e-07
5.28728e-07
4.92695e-07
4.28656e-07
1.54128e-07
1.69671e-07
4.9027e-07
4.72118e-07
3.96938e-07
3.77922e-07
3.38516e-07
3.52607e-07
6.24314e-07
5.7829e-07
6.01856e-07
4.54516e-07
4.99605e-07
5.23506e-07
6.0093e-07
6.51751e-07
7.63501e-07
4.90852e-07
3.80904e-07
3.92581e-07
7.93003e-07
7.50151e-07
5.61916e-07
5.86055e-07
4.60118e-07
4.86955e-07
4.5852e-07
5.05097e-07
5.73546e-07
7.0739e-07
5.71088e-07
7.54173e-07
1.66098e-07
2.32502e-07
9.44239e-07
1.19621e-07
1.30768e-07
5.72161e-08
5.40783e-08
2.49416e-08
2.47958e-08
5.31596e-08
5.15817e-08
5.58271e-08
6.54504e-08
8.83456e-08
1.0051e-07
1.8482e-07
2.10823e-07
1.80232e-07
1.86248e-07
2.06504e-07
2.37436e-07
2.77839e-07
3.28197e-07
3.90047e-07
4.64434e-07
5.53063e-07
6.57784e-07
7.79332e-07
9.1834e-07
1.06768e-06
1.19988e-06
1.285e-06
1.31519e-06
1.30162e-06
1.26399e-06
1.21828e-06
1.17117e-06
1.12438e-06
1.07904e-06
1.03023e-06
9.77557e-07
9.25681e-07
8.76805e-07
8.34633e-07
8.01111e-07
7.74775e-07
7.55904e-07
7.43828e-07
7.3616e-07
7.29814e-07
7.22005e-07
7.11192e-07
6.97734e-07
6.8275e-07
6.6873e-07
6.56893e-07
6.48382e-07
6.43647e-07
6.40852e-07
6.37536e-07
6.32021e-07
6.24667e-07
6.17914e-07
6.14445e-07
6.14794e-07
6.16343e-07
6.14815e-07
6.08118e-07
5.98922e-07
5.92137e-07
5.90702e-07
5.94212e-07
6.00481e-07
6.0698e-07
6.13211e-07
6.18169e-07
6.16677e-07
6.04923e-07
5.8896e-07
5.87019e-07
6.02548e-07
6.18002e-07
6.07243e-07
5.77931e-07
5.73996e-07
6.07703e-07
6.33493e-07
6.19283e-07
6.08326e-07
6.38359e-07
6.4786e-07
6.17281e-07
5.92918e-07
6.49935e-07
2.72804e-07
1.86502e-07
7.84865e-08
1.64021e-07
1.22903e-09
1.73325e-09
4.80237e-09
1.0209e-08
9.76708e-09
9.33351e-09
8.79586e-09
7.88031e-09
8.14434e-09
9.80047e-09
1.06474e-08
1.16899e-08
1.0774e-08
1.01359e-08
9.06556e-09
8.92464e-09
9.44341e-09
9.95518e-09
9.62149e-09
8.83158e-09
8.18272e-09
7.80368e-09
7.57995e-09
7.25714e-09
7.16772e-09
7.65175e-09
8.03705e-09
7.81186e-09
7.01468e-09
6.30226e-09
5.98117e-09
6.14246e-09
6.67379e-09
7.05682e-09
6.51012e-09
5.82148e-09
5.26035e-09
5.06541e-09
5.35552e-09
5.84328e-09
5.71204e-09
5.32188e-09
5.29729e-09
5.75552e-09
6.12291e-09
5.91942e-09
5.29742e-09
4.9306e-09
5.26714e-09
5.95543e-09
6.35813e-09
6.18355e-09
5.76981e-09
5.09002e-09
4.69946e-09
4.84478e-09
5.59667e-09
5.89263e-09
5.33871e-09
4.91388e-09
4.92205e-09
5.23501e-09
5.38122e-09
4.86287e-09
4.34201e-09
4.19218e-09
4.57431e-09
4.63477e-09
4.40472e-09
4.39652e-09
4.56171e-09
4.75952e-09
5.37097e-09
6.03416e-09
5.96832e-09
6.25849e-09
5.77792e-09
6.63385e-09
7.84789e-09
1.10633e-08
1.05357e-08
7.11383e-09
6.67293e-09
7.47873e-09
1.09547e-08
7.78897e-09
7.28131e-09
6.48625e-09
4.29829e-09
4.05136e-09
2.11408e-09
2.18501e-09
5.37173e-09
5.02324e-09
2.12663e-08
3.99663e-08
8.46014e-09
8.47177e-09
9.08243e-09
9.40656e-09
9.73674e-09
8.49791e-09
8.02961e-09
9.39657e-09
9.35927e-09
7.27831e-09
7.2519e-09
7.28999e-09
6.33e-09
4.35259e-09
4.48299e-09
3.7658e-09
3.07478e-09
3.65825e-09
4.3597e-09
5.17626e-09
6.10735e-09
6.78497e-09
6.7226e-09
1.00243e-08
1.14671e-08
1.28269e-08
1.14983e-08
8.83299e-09
9.6155e-09
1.13012e-08
1.43834e-08
1.82065e-08
2.46779e-08
1.6435e-08
3.3285e-08
2.36242e-08
1.95098e-08
1.56272e-08
1.44463e-08
1.16226e-08
1.08244e-08
1.26574e-08
1.30535e-08
1.42208e-08
1.51e-08
1.47919e-08
1.47129e-08
1.52107e-08
1.56075e-08
1.61838e-08
1.69691e-08
1.75623e-08
1.79987e-08
1.84747e-08
1.89482e-08
1.9637e-08
2.03995e-08
2.11676e-08
2.19785e-08
2.26894e-08
2.32398e-08
2.39544e-08
2.50871e-08
2.63275e-08
2.71335e-08
2.78217e-08
2.88903e-08
3.05107e-08
3.21142e-08
3.31655e-08
3.45311e-08
3.67786e-08
3.9155e-08
4.079e-08
4.25743e-08
4.5851e-08
4.98227e-08
5.21456e-08
5.48507e-08
6.00389e-08
6.60474e-08
7.08292e-08
7.54338e-08
8.25614e-08
9.36982e-08
1.02924e-07
1.10748e-07
1.22061e-07
1.37158e-07
1.55936e-07
1.67915e-07
1.654e-07
1.73815e-07
1.83061e-07
1.77487e-07
1.64424e-07
1.54787e-07
1.46511e-07
1.35314e-07
1.25145e-07
1.15497e-07
1.10235e-07
1.04779e-07
9.7777e-08
9.21206e-08
8.79847e-08
8.56783e-08
8.20009e-08
7.72965e-08
7.41343e-08
7.31479e-08
7.34601e-08
7.12724e-08
6.74238e-08
6.5321e-08
6.53098e-08
6.52871e-08
6.40425e-08
6.26451e-08
6.12245e-08
6.03825e-08
6.00453e-08
6.1099e-08
6.09697e-08
5.90643e-08
5.83229e-08
5.79861e-08
5.85886e-08
5.89567e-08
5.88647e-08
5.89035e-08
5.82778e-08
5.73576e-08
5.71111e-08
5.79198e-08
5.87628e-08
5.86609e-08
5.80962e-08
5.81772e-08
5.85134e-08
5.83118e-08
5.86134e-08
5.93868e-08
5.95471e-08
5.87083e-08
5.81283e-08
5.92976e-08
5.98577e-08
5.86842e-08
5.94498e-08
6.13927e-08
6.10956e-08
5.95147e-08
5.93052e-08
6.03617e-08