/*--------------------------------*- C++ -*----------------------------------*\
| =========                 |                                                 |
| \\      /  F ield         | OpenFOAM: The Open Source CFD Toolbox           |
|  \\    /   O peration     | Version:  v2006                                 |
|   \\  /    A nd           | Website:  www.openfoam.com                      |
|    \\/     M anipulation  |                                                 |
\*---------------------------------------------------------------------------*/
FoamFile
{
    version     2.0;
    format      ascii;
    class       volScalarField;
    location    "3.5";
    object      p;
}
// * * * * * * * * * * * * * * * * * * * * * * * * * * * * * * * * * * * * * //

dimensions      [1 -1 -2 0 0 0 0];


internalField   nonuniform List<scalar> 
33000
(
7102.9
7107.5
7109.28
7111.12
7113.04
7115.07
7117.31
7119.86
7122.59
7125.43
7128.48
7131.74
7135.23
7138.93
7142.82
7146.9
7151.19
7155.68
7160.39
7165.3
7170.42
7175.75
7181.27
7186.94
7192.8
7198.88
7205.18
7211.68
7218.34
7225.15
7232.15
7239.33
7246.67
7254.14
7261.77
7269.59
7277.6
7285.77
7294.04
7302.42
7310.96
7319.64
7328.48
7337.44
7346.47
7355.58
7364.79
7374.16
7383.65
7393.23
7402.89
7412.6
7422.38
7432.23
7442.16
7452.18
7462.26
7472.36
7482.49
7492.66
7502.89
7513.14
7523.37
7533.58
7543.79
7554
7564.2
7574.37
7584.47
7594.49
7604.45
7614.31
7624.05
7633.58
7642.84
7651.79
7660.09
7667.06
7673.38
7688.23
7699.18
7710.52
7721.93
7733.24
7744.49
7757.12
7768.89
7781.37
7793.16
7805.51
7817.48
7829.63
7841.8
7853.85
7865.88
7877.71
7889.25
7900.78
7910.48
7922.81
7937.01
7950.26
7964.91
7978.68
7992.63
8006.43
8020.16
8033.77
8047.36
8060.88
8074.02
8087.02
8099.66
8112.06
8123.97
8135.87
8146.47
8158.38
8171.58
8183.58
8195.53
8207.14
8218.45
8229.44
8240.09
8250.47
8260.51
8270.25
8279.66
8288.76
8297.55
8306.08
8314.31
8322.29
8329.99
8337.47
8344.71
8351.74
8358.52
8365.05
8371.31
8377.26
8382.92
8388.26
8393.28
8397.95
8402.27
8406.24
8409.84
8413.08
8415.93
8418.4
8420.49
8422.2
8423.52
8424.46
8425
8425.15
8424.92
8424.32
8423.33
8421.96
8420.23
8418.14
8415.68
8412.87
8409.73
8406.25
8402.45
8398.32
8393.89
8389.17
8384.17
8378.89
8373.34
8367.55
8361.52
8355.26
8348.79
8342.11
8335.23
8328.18
8320.96
8313.59
8306.06
8298.41
8290.64
8282.75
8274.77
8266.7
8258.55
8250.34
8242.07
8233.76
8225.42
8217.05
8208.66
8200.27
8191.89
8183.51
8175.16
8166.83
8158.53
8150.28
8142.08
8133.93
8125.84
8117.81
8109.86
8101.98
8094.19
8086.47
8078.84
8071.3
8063.86
8056.51
8049.26
8042.11
8035.06
8028.11
8021.28
8014.55
8007.93
8001.41
7995
7988.7
7982.51
7976.43
7970.46
7964.59
7958.83
7953.19
7947.65
7942.21
7936.89
7931.66
7926.54
7921.53
7916.62
7911.8
7907.09
7902.48
7897.96
7893.54
7889.21
7884.98
7880.84
7876.79
7872.83
7868.96
7865.18
7861.48
7857.86
7854.34
7850.88
7847.51
7844.22
7841.01
7837.87
7834.8
7831.81
7828.89
7826.04
7823.26
7820.54
7817.89
7815.31
7812.79
7810.33
7807.93
7805.59
7803.31
7801.09
7798.92
7796.81
7794.75
7792.74
7790.78
7788.87
7787
7785.19
7783.42
7781.7
7780.02
7778.38
7776.78
7775.22
7773.71
7772.23
7770.79
7769.38
7768.01
7766.67
7765.37
7764.1
7762.86
7761.65
7760.47
7759.32
7758.19
7757.1
7756.03
7754.98
7753.96
7752.97
7751.99
7751.04
7750.12
7749.21
7748.32
7747.45
7746.61
7745.78
7744.97
7744.18
7743.4
7742.65
7741.91
7741.2
7740.5
7739.82
7739.15
7738.51
7737.88
7737.27
7736.68
7736.1
7735.55
7735
7734.48
7733.97
7733.47
7733
7732.53
7732.08
7731.65
7731.23
7730.82
7730.43
7730.05
7729.69
7729.33
7728.99
7728.66
7728.35
7728.04
7727.75
7727.46
7727.19
7726.93
7726.68
7726.43
7726.2
7725.97
7725.76
7725.55
7725.35
7725.16
7724.98
7724.81
7724.64
7724.48
7724.33
7724.18
7724.04
7723.91
7723.78
7723.66
7723.55
7723.44
7723.34
7723.24
7723.15
7723.06
7722.98
7722.9
7722.83
7722.76
7722.7
7722.64
7722.59
7722.54
7722.5
7722.46
7722.42
7722.38
7722.36
7722.33
7722.31
7722.29
7722.27
7722.26
7722.25
7722.24
7722.24
7722.24
7722.24
7722.25
7722.26
7722.27
7722.28
7722.3
7722.32
7722.34
7722.36
7722.39
7722.42
7722.45
7722.48
7722.52
7722.55
7722.59
7722.63
7722.67
7722.72
7722.76
7722.81
7722.86
7722.91
7722.96
7723.02
7723.07
7723.13
7723.19
7723.24
7723.3
7723.36
7723.42
7723.47
7723.55
7723.61
7723.64
7723.7
7723.75
7723.81
7723.87
7723.94
7724.01
7724.07
7724.15
7724.22
7724.29
7724.37
7724.44
7724.52
7724.6
7724.68
7724.76
7724.84
7724.91
7724.99
7725.06
7725.14
7725.22
7725.31
7725.39
7725.48
7725.56
7725.65
7725.73
7725.82
7725.91
7726
7726.08
7726.17
7726.25
7726.34
7726.4
7726.53
7726.59
7726.64
7726.7
7726.76
7726.83
7726.91
7726.98
7727.06
7727.14
7727.22
7727.3
7727.38
7727.46
7727.54
7727.63
7727.71
7727.79
7727.88
7727.97
7728.05
7728.14
7728.22
7728.31
7728.4
7728.49
7728.57
7728.66
7728.75
7728.84
7728.93
7729.02
7729.11
7729.19
7729.28
7729.37
7729.46
7729.55
7729.64
7729.73
7729.82
7729.91
7730
7730.08
7730.17
7730.26
7730.35
7730.44
7730.53
7730.62
7730.7
7730.79
7730.88
7730.97
7731.06
7731.14
7731.23
7731.32
7731.41
7731.49
7731.58
7731.67
7731.75
7731.84
7731.92
7732.01
7732.09
7732.18
7732.26
7732.35
7732.43
7732.52
7732.6
7732.68
7732.77
7732.85
7732.93
7733.02
7733.1
7733.18
7733.25
7733.37
6906.23
6910.85
6912.62
6914.44
6916.36
6918.39
6920.63
6923.18
6925.92
6928.76
6931.8
6935.05
6938.53
6942.23
6946.11
6950.2
6954.5
6959
6963.7
6968.62
6973.73
6979.06
6984.57
6990.27
6996.17
7002.27
7008.56
7015.04
7021.69
7028.51
7035.52
7042.72
7050.08
7057.58
7065.24
7073.05
7081.03
7089.2
7097.49
7105.92
7114.48
7123.15
7131.97
7140.93
7149.97
7159.13
7168.4
7177.75
7187.22
7196.79
7206.44
7216.19
7226
7235.87
7245.8
7255.81
7265.9
7276.02
7286.17
7296.38
7306.61
7316.89
7327.15
7337.39
7347.64
7357.91
7368.15
7378.33
7388.46
7398.55
7408.56
7418.5
7428.34
7438.05
7447.58
7456.88
7465.92
7474.7
7483.84
7492.87
7500.27
7508.04
7524.95
7537.11
7549.65
7561.07
7572.85
7584.39
7595.94
7608.95
7621.04
7633.53
7645.75
7657.94
7670.15
7682.33
7694.44
7706.46
7718.39
7730.15
7742.52
7753.88
7766.89
7781.19
7795.13
7809.71
7824.06
7837.89
7851.54
7864.92
7878
7890.97
7903.82
7916.4
7928.71
7940.83
7952.63
7964.31
7976.11
7986.98
7998.6
8010.89
8022.33
8033.42
8044.2
8054.6
8064.69
8074.4
8083.87
8092.99
8101.83
8110.35
8118.6
8126.59
8134.32
8141.81
8149.08
8156.11
8162.9
8169.44
8175.72
8181.69
8187.36
8192.72
8197.74
8202.42
8206.75
8210.73
8214.34
8217.57
8220.42
8222.89
8224.98
8226.68
8228
8228.92
8229.45
8229.6
8229.37
8228.75
8227.75
8226.37
8224.63
8222.53
8220.06
8217.25
8214.09
8210.6
8206.79
8202.66
8198.22
8193.49
8188.48
8183.18
8177.63
8171.82
8165.77
8159.5
8153
8146.31
8139.42
8132.35
8125.11
8117.71
8110.17
8102.5
8094.71
8086.81
8078.81
8070.72
8062.55
8054.32
8046.04
8037.71
8029.35
8020.97
8012.57
8004.17
7995.77
7987.38
7979.01
7970.67
7962.36
7954.1
7945.89
7937.73
7929.63
7921.59
7913.63
7905.74
7897.93
7890.21
7882.57
7875.03
7867.58
7860.23
7852.97
7845.81
7838.76
7831.81
7824.97
7818.24
7811.61
7805.09
7798.68
7792.38
7786.18
7780.1
7774.13
7768.26
7762.51
7756.86
7751.32
7745.88
7740.56
7735.33
7730.22
7725.2
7720.28
7715.47
7710.76
7706.15
7701.63
7697.21
7692.89
7688.66
7684.52
7680.47
7676.51
7672.64
7668.86
7665.17
7661.55
7658.02
7654.58
7651.21
7647.92
7644.7
7641.56
7638.5
7635.51
7632.59
7629.74
7626.96
7624.25
7621.6
7619.02
7616.5
7614.04
7611.65
7609.31
7607.03
7604.81
7602.64
7600.53
7598.47
7596.46
7594.5
7592.59
7590.73
7588.92
7587.15
7585.43
7583.75
7582.11
7580.51
7578.96
7577.44
7575.96
7574.52
7573.12
7571.75
7570.41
7569.11
7567.84
7566.6
7565.39
7564.21
7563.06
7561.94
7560.84
7559.77
7558.73
7557.71
7556.72
7555.74
7554.79
7553.87
7552.96
7552.08
7551.21
7550.36
7549.53
7548.72
7547.93
7547.16
7546.41
7545.67
7544.96
7544.26
7543.58
7542.92
7542.27
7541.64
7541.04
7540.44
7539.87
7539.31
7538.77
7538.24
7537.74
7537.24
7536.76
7536.3
7535.85
7535.42
7535
7534.6
7534.21
7533.83
7533.46
7533.11
7532.77
7532.44
7532.12
7531.82
7531.52
7531.24
7530.97
7530.71
7530.45
7530.21
7529.98
7529.75
7529.54
7529.33
7529.13
7528.94
7528.76
7528.59
7528.42
7528.26
7528.11
7527.96
7527.82
7527.69
7527.57
7527.45
7527.33
7527.23
7527.12
7527.03
7526.93
7526.85
7526.77
7526.69
7526.62
7526.55
7526.49
7526.43
7526.38
7526.33
7526.29
7526.24
7526.21
7526.17
7526.15
7526.12
7526.1
7526.08
7526.06
7526.05
7526.04
7526.04
7526.03
7526.03
7526.04
7526.04
7526.05
7526.06
7526.08
7526.09
7526.11
7526.13
7526.16
7526.18
7526.21
7526.24
7526.27
7526.31
7526.35
7526.38
7526.43
7526.47
7526.51
7526.56
7526.61
7526.65
7526.71
7526.76
7526.81
7526.87
7526.92
7526.98
7527.04
7527.09
7527.17
7527.23
7527.26
7527.32
7527.37
7527.43
7527.48
7527.54
7527.6
7527.66
7527.73
7527.8
7527.87
7527.94
7528.01
7528.09
7528.17
7528.24
7528.33
7528.41
7528.47
7528.55
7528.62
7528.7
7528.78
7528.85
7528.94
7529.02
7529.1
7529.19
7529.27
7529.36
7529.44
7529.54
7529.62
7529.71
7529.78
7529.88
7529.95
7530.1
7530.17
7530.23
7530.3
7530.37
7530.44
7530.51
7530.58
7530.65
7530.72
7530.8
7530.87
7530.95
7531.03
7531.11
7531.19
7531.27
7531.35
7531.43
7531.52
7531.6
7531.69
7531.77
7531.86
7531.94
7532.03
7532.12
7532.2
7532.29
7532.38
7532.47
7532.55
7532.64
7532.73
7532.82
7532.91
7533
7533.08
7533.17
7533.26
7533.35
7533.44
7533.53
7533.62
7533.71
7533.8
7533.89
7533.97
7534.06
7534.15
7534.24
7534.33
7534.42
7534.51
7534.59
7534.68
7534.77
7534.86
7534.94
7535.03
7535.12
7535.21
7535.29
7535.38
7535.47
7535.55
7535.64
7535.72
7535.81
7535.89
7535.98
7536.06
7536.15
7536.23
7536.32
7536.4
7536.49
7536.57
7536.65
7536.73
7536.82
7536.9
7536.98
7537.05
7537.17
6709.06
6713.73
6715.47
6717.27
6719.17
6721.18
6723.41
6725.95
6728.67
6731.48
6734.5
6737.74
6741.22
6744.91
6748.8
6752.9
6757.2
6761.7
6766.41
6771.33
6776.45
6781.79
6787.32
6793.05
6798.99
6805.11
6811.41
6817.88
6824.54
6831.41
6838.44
6845.65
6853.04
6860.58
6868.27
6876.12
6884.1
6892.25
6900.58
6909.04
6917.62
6926.32
6935.14
6944.08
6953.15
6962.36
6971.66
6981.04
6990.51
7000.08
7009.74
7019.5
7029.33
7039.24
7049.21
7059.24
7069.32
7079.47
7089.67
7099.91
7110.17
7120.47
7130.77
7141.08
7151.4
7161.72
7172.01
7182.24
7192.44
7202.62
7212.73
7222.76
7232.72
7242.58
7252.34
7261.98
7271.51
7281.05
7290.76
7300.61
7310.33
7320.34
7330.03
7338.03
7346.38
7364.12
7376.65
7390.26
7401.49
7413.49
7425.07
7436.84
7449.87
7462.09
7474.62
7486.92
7499.18
7511.49
7523.88
7536.27
7549.05
7561.85
7574.64
7587.69
7600.08
7613.19
7627.09
7640.67
7654.36
7668.5
7682.13
7695.37
7708.31
7720.86
7733.21
7745.54
7757.58
7769.55
7781.45
7793.08
7804.53
7815.8
7826.41
7837.35
7848.48
7859.05
7869.16
7879.04
7888.5
7897.71
7906.53
7915.16
7923.44
7931.51
7939.25
7946.79
7954.07
7961.12
7967.95
7974.5
7980.79
7986.78
7992.47
7997.84
8002.87
8007.57
8011.9
8015.89
8019.49
8022.72
8025.58
8028.05
8030.13
8031.83
8033.13
8034.03
8034.56
8034.7
8034.45
8033.82
8032.8
8031.41
8029.65
8027.52
8025.05
8022.21
8019.04
8015.53
8011.7
8007.55
8003.09
7998.33
7993.29
7987.97
7982.39
7976.55
7970.47
7964.16
7957.63
7950.9
7943.98
7936.87
7929.59
7922.16
7914.58
7906.88
7899.05
7891.11
7883.07
7874.95
7866.75
7858.48
7850.17
7841.81
7833.42
7825.01
7816.58
7808.15
7799.72
7791.3
7782.91
7774.54
7766.21
7757.92
7749.69
7741.51
7733.38
7725.33
7717.35
7709.45
7701.62
7693.88
7686.23
7678.67
7671.21
7663.84
7656.58
7649.41
7642.35
7635.39
7628.54
7621.8
7615.16
7608.64
7602.23
7595.92
7589.72
7583.64
7577.66
7571.8
7566.04
7560.39
7554.85
7549.41
7544.09
7538.86
7533.74
7528.73
7523.81
7519.01
7514.3
7509.69
7505.17
7500.75
7496.43
7492.2
7488.07
7484.02
7480.07
7476.2
7472.42
7468.73
7465.12
7461.59
7458.15
7454.78
7451.49
7448.28
7445.15
7442.09
7439.1
7436.19
7433.34
7430.56
7427.85
7425.21
7422.63
7420.11
7417.66
7415.26
7412.93
7410.65
7408.44
7406.27
7404.16
7402.1
7400.1
7398.14
7396.24
7394.38
7392.57
7390.8
7389.08
7387.4
7385.77
7384.17
7382.62
7381.11
7379.63
7378.19
7376.79
7375.42
7374.09
7372.79
7371.52
7370.28
7369.07
7367.9
7366.75
7365.63
7364.53
7363.47
7362.42
7361.41
7360.41
7359.44
7358.49
7357.57
7356.66
7355.78
7354.91
7354.07
7353.24
7352.43
7351.64
7350.87
7350.12
7349.39
7348.67
7347.98
7347.3
7346.64
7345.99
7345.37
7344.76
7344.17
7343.6
7343.04
7342.5
7341.98
7341.47
7340.98
7340.5
7340.04
7339.59
7339.16
7338.74
7338.34
7337.95
7337.57
7337.21
7336.86
7336.52
7336.19
7335.87
7335.57
7335.28
7334.99
7334.72
7334.46
7334.21
7333.97
7333.74
7333.51
7333.3
7333.09
7332.9
7332.71
7332.53
7332.35
7332.19
7332.03
7331.88
7331.73
7331.59
7331.46
7331.34
7331.22
7331.1
7331
7330.89
7330.8
7330.71
7330.62
7330.54
7330.47
7330.39
7330.33
7330.27
7330.21
7330.16
7330.11
7330.06
7330.02
7329.99
7329.95
7329.92
7329.9
7329.88
7329.86
7329.84
7329.83
7329.82
7329.82
7329.82
7329.82
7329.82
7329.83
7329.84
7329.85
7329.86
7329.88
7329.9
7329.92
7329.94
7329.97
7330
7330.03
7330.06
7330.1
7330.13
7330.17
7330.21
7330.26
7330.3
7330.35
7330.4
7330.45
7330.5
7330.55
7330.6
7330.66
7330.71
7330.79
7330.85
7330.88
7330.93
7330.98
7331.04
7331.09
7331.15
7331.21
7331.27
7331.33
7331.39
7331.46
7331.52
7331.59
7331.66
7331.73
7331.8
7331.89
7331.96
7332.03
7332.1
7332.18
7332.25
7332.33
7332.41
7332.49
7332.57
7332.64
7332.73
7332.81
7332.9
7332.98
7333.08
7333.15
7333.25
7333.32
7333.42
7333.49
7333.64
7333.71
7333.76
7333.83
7333.9
7333.97
7334.05
7334.12
7334.2
7334.27
7334.34
7334.42
7334.5
7334.57
7334.65
7334.73
7334.81
7334.89
7334.97
7335.06
7335.14
7335.22
7335.31
7335.39
7335.48
7335.56
7335.65
7335.74
7335.82
7335.91
7336
7336.09
7336.17
7336.26
7336.35
7336.44
7336.53
7336.62
7336.71
7336.79
7336.88
7336.97
7337.06
7337.15
7337.24
7337.33
7337.42
7337.51
7337.6
7337.68
7337.77
7337.86
7337.95
7338.04
7338.13
7338.22
7338.31
7338.39
7338.48
7338.57
7338.66
7338.74
7338.83
7338.92
7339.01
7339.09
7339.18
7339.27
7339.35
7339.44
7339.52
7339.61
7339.7
7339.78
7339.87
7339.95
7340.03
7340.12
7340.2
7340.29
7340.37
7340.45
7340.54
7340.62
7340.7
7340.79
7340.85
7340.98
6511.42
6516.15
6517.87
6519.64
6521.52
6523.51
6525.71
6528.22
6530.92
6533.72
6536.73
6539.95
6543.41
6547.1
6550.98
6555.07
6559.38
6563.89
6568.61
6573.54
6578.68
6584.02
6589.56
6595.31
6601.26
6607.39
6613.71
6620.2
6626.9
6633.81
6640.89
6648.12
6655.51
6663.07
6670.8
6678.7
6686.73
6694.91
6703.24
6711.72
6720.33
6729.07
6737.91
6746.87
6755.96
6765.2
6774.54
6783.97
6793.46
6803.04
6812.74
6822.53
6832.42
6842.37
6852.39
6862.46
6872.58
6882.76
6893.02
6903.31
6913.63
6923.97
6934.34
6944.73
6955.13
6965.52
6975.88
6986.21
6996.53
7006.81
7017.05
7027.22
7037.33
7047.4
7057.42
7067.39
7077.31
7087.24
7097.19
7107.22
7117.38
7127.83
7138.48
7149.1
7159.98
7170.74
7180.59
7188.89
7197.77
7216.51
7228.8
7242.07
7253.85
7266.13
7278.16
7291.46
7303.97
7316.72
7329.38
7341.95
7354.74
7367.56
7380.55
7393.59
7406.87
7419.9
7433.59
7446.78
7459.62
7472.86
7485.63
7498.68
7512.11
7525.39
7538.1
7550.66
7562.73
7574.72
7586.61
7598.3
7609.77
7621.13
7632.21
7643.14
7653.74
7663.86
7674.04
7684.07
7693.76
7702.92
7711.92
7720.51
7728.88
7736.95
7744.8
7752.36
7759.71
7766.77
7773.6
7780.17
7786.47
7792.49
7798.2
7803.58
7808.64
7813.35
7817.7
7821.69
7825.31
7828.55
7831.41
7833.88
7835.97
7837.66
7838.95
7839.85
7840.37
7840.49
7840.22
7839.57
7838.53
7837.12
7835.33
7833.17
7830.66
7827.8
7824.59
7821.04
7817.17
7812.97
7808.47
7803.67
7798.58
7793.22
7787.59
7781.71
7775.58
7769.22
7762.65
7755.87
7748.89
7741.73
7734.4
7726.92
7719.29
7711.53
7703.64
7695.65
7687.56
7679.38
7671.13
7662.82
7654.46
7646.05
7637.61
7629.15
7620.68
7612.2
7603.73
7595.27
7586.84
7578.43
7570.07
7561.74
7553.47
7545.25
7537.1
7529.03
7521.02
7513.09
7505.23
7497.47
7489.8
7482.22
7474.74
7467.36
7460.08
7452.9
7445.82
7438.86
7432
7425.24
7418.6
7412.07
7405.65
7399.34
7393.14
7387.04
7381.06
7375.19
7369.44
7363.79
7358.24
7352.81
7347.48
7342.26
7337.14
7332.13
7327.22
7322.41
7317.7
7313.09
7308.58
7304.17
7299.85
7295.62
7291.49
7287.45
7283.5
7279.64
7275.86
7272.17
7268.57
7265.05
7261.61
7258.24
7254.96
7251.76
7248.63
7245.57
7242.59
7239.68
7236.84
7234.06
7231.36
7228.72
7226.14
7223.63
7221.18
7218.79
7216.46
7214.19
7211.98
7209.82
7207.71
7205.66
7203.65
7201.7
7199.8
7197.95
7196.14
7194.38
7192.66
7190.98
7189.35
7187.76
7186.21
7184.7
7183.23
7181.79
7180.39
7179.03
7177.69
7176.4
7175.13
7173.9
7172.69
7171.52
7170.37
7169.25
7168.16
7167.1
7166.06
7165.04
7164.05
7163.08
7162.14
7161.21
7160.31
7159.43
7158.57
7157.72
7156.9
7156.09
7155.31
7154.54
7153.79
7153.06
7152.34
7151.65
7150.97
7150.31
7149.67
7149.05
7148.44
7147.86
7147.28
7146.73
7146.19
7145.67
7145.17
7144.68
7144.2
7143.74
7143.3
7142.87
7142.45
7142.05
7141.66
7141.29
7140.92
7140.57
7140.24
7139.91
7139.6
7139.3
7139
7138.72
7138.45
7138.19
7137.94
7137.7
7137.47
7137.25
7137.04
7136.83
7136.64
7136.45
7136.27
7136.1
7135.93
7135.78
7135.62
7135.48
7135.34
7135.21
7135.09
7134.97
7134.86
7134.75
7134.65
7134.56
7134.47
7134.38
7134.3
7134.23
7134.16
7134.09
7134.03
7133.97
7133.92
7133.87
7133.83
7133.79
7133.75
7133.72
7133.69
7133.67
7133.65
7133.63
7133.61
7133.6
7133.6
7133.59
7133.59
7133.59
7133.59
7133.6
7133.61
7133.62
7133.64
7133.66
7133.68
7133.7
7133.72
7133.75
7133.78
7133.81
7133.84
7133.88
7133.91
7133.95
7134
7134.04
7134.09
7134.13
7134.18
7134.22
7134.28
7134.33
7134.41
7134.46
7134.49
7134.54
7134.58
7134.64
7134.69
7134.75
7134.8
7134.86
7134.92
7134.98
7135.04
7135.1
7135.17
7135.23
7135.31
7135.37
7135.46
7135.53
7135.59
7135.66
7135.73
7135.8
7135.89
7135.96
7136.04
7136.11
7136.2
7136.27
7136.36
7136.43
7136.53
7136.61
7136.69
7136.77
7136.85
7136.95
7137.02
7137.17
7137.25
7137.3
7137.38
7137.45
7137.53
7137.61
7137.69
7137.77
7137.84
7137.91
7137.99
7138.06
7138.14
7138.22
7138.29
7138.37
7138.45
7138.53
7138.61
7138.69
7138.77
7138.86
7138.94
7139.02
7139.11
7139.19
7139.28
7139.36
7139.45
7139.54
7139.62
7139.71
7139.8
7139.89
7139.97
7140.06
7140.15
7140.24
7140.33
7140.42
7140.51
7140.59
7140.68
7140.77
7140.86
7140.95
7141.04
7141.13
7141.22
7141.31
7141.4
7141.49
7141.57
7141.66
7141.75
7141.84
7141.93
7142.02
7142.11
7142.19
7142.28
7142.37
7142.46
7142.55
7142.63
7142.72
7142.81
7142.89
7142.98
7143.07
7143.15
7143.24
7143.33
7143.41
7143.5
7143.58
7143.67
7143.75
7143.84
7143.92
7144
7144.09
7144.17
7144.25
7144.34
7144.42
7144.5
7144.59
7144.65
7144.78
6313.3
6318.1
6319.79
6321.53
6323.37
6325.33
6327.49
6329.97
6332.64
6335.41
6338.39
6341.6
6345.04
6348.72
6352.6
6356.7
6360.99
6365.5
6370.23
6375.18
6380.34
6385.7
6391.27
6397.04
6403.01
6409.16
6415.49
6422.02
6428.77
6435.72
6442.83
6450.09
6457.5
6465.1
6472.86
6480.79
6488.89
6497.12
6505.47
6513.98
6522.63
6531.41
6540.29
6549.28
6558.41
6567.69
6577.08
6586.54
6596.08
6605.7
6615.43
6625.28
6635.22
6645.23
6655.31
6665.43
6675.59
6685.83
6696.14
6706.49
6716.87
6727.28
6737.73
6748.22
6758.7
6769.18
6779.64
6790.1
6800.55
6810.97
6821.34
6831.68
6841.98
6852.26
6862.52
6872.77
6883.01
6893.28
6903.58
6913.94
6924.36
6934.82
6945.42
6956.13
6967.14
6978.31
6989.23
7000.07
7010.87
7021.2
7029.79
7039.12
7058.36
7070.67
7084.11
7096.23
7108.7
7121
7134.57
7147.41
7160.53
7173.6
7186.6
7199.75
7212.87
7226.1
7239.23
7252.51
7265.46
7278.82
7291.85
7304.83
7317.65
7329.79
7342.29
7355.14
7367.87
7380.08
7392.15
7403.79
7415.27
7426.61
7437.72
7448.56
7459.26
7469.63
7479.93
7489.78
7499.33
7508.77
7517.8
7526.73
7534.96
7543.24
7551.04
7558.71
7566.06
7573.17
7580.09
7586.64
7592.96
7598.95
7604.67
7610.07
7615.14
7619.85
7624.21
7628.2
7631.83
7635.08
7637.95
7640.42
7642.5
7644.18
7645.47
7646.37
7646.87
7646.98
7646.68
7646
7644.93
7643.49
7641.67
7639.47
7636.91
7634
7630.74
7627.14
7623.2
7618.96
7614.4
7609.54
7604.39
7598.96
7593.27
7587.32
7581.12
7574.7
7568.06
7561.2
7554.15
7546.93
7539.53
7531.97
7524.28
7516.45
7508.49
7500.42
7492.26
7484.02
7475.7
7467.32
7458.89
7450.41
7441.91
7433.39
7424.85
7416.32
7407.79
7399.27
7390.79
7382.33
7373.92
7365.55
7357.23
7348.97
7340.78
7332.67
7324.62
7316.65
7308.77
7300.98
7293.28
7285.68
7278.17
7270.77
7263.47
7256.27
7249.18
7242.2
7235.33
7228.56
7221.91
7215.37
7208.94
7202.62
7196.41
7190.32
7184.33
7178.46
7172.7
7167.04
7161.5
7156.06
7150.74
7145.51
7140.4
7135.39
7130.48
7125.67
7120.97
7116.36
7111.85
7107.45
7103.13
7098.91
7094.79
7090.75
7086.8
7082.95
7079.18
7075.49
7071.89
7068.38
7064.95
7061.59
7058.31
7055.12
7051.99
7048.94
7045.97
7043.06
7040.23
7037.46
7034.76
7032.13
7029.56
7027.05
7024.61
7022.23
7019.9
7017.64
7015.43
7013.27
7011.17
7009.12
7007.13
7005.18
7003.28
7001.43
6999.63
6997.88
6996.16
6994.49
6992.86
6991.28
6989.73
6988.23
6986.76
6985.32
6983.93
6982.57
6981.24
6979.94
6978.68
6977.45
6976.25
6975.08
6973.94
6972.82
6971.73
6970.67
6969.64
6968.62
6967.64
6966.67
6965.73
6964.81
6963.91
6963.03
6962.17
6961.33
6960.51
6959.7
6958.92
6958.16
6957.41
6956.68
6955.97
6955.28
6954.6
6953.95
6953.31
6952.69
6952.09
6951.5
6950.94
6950.38
6949.85
6949.33
6948.83
6948.34
6947.87
6947.41
6946.97
6946.54
6946.13
6945.73
6945.34
6944.97
6944.61
6944.27
6943.93
6943.61
6943.3
6943
6942.71
6942.43
6942.16
6941.9
6941.66
6941.42
6941.19
6940.97
6940.76
6940.55
6940.36
6940.17
6940
6939.83
6939.66
6939.51
6939.36
6939.21
6939.08
6938.95
6938.83
6938.71
6938.6
6938.49
6938.39
6938.3
6938.21
6938.13
6938.05
6937.97
6937.91
6937.84
6937.78
6937.73
6937.67
6937.63
6937.58
6937.55
6937.51
6937.48
6937.45
6937.43
6937.41
6937.39
6937.38
6937.37
6937.36
6937.35
6937.35
6937.36
6937.36
6937.37
6937.38
6937.39
6937.41
6937.42
6937.45
6937.47
6937.49
6937.52
6937.55
6937.58
6937.61
6937.65
6937.69
6937.73
6937.77
6937.81
6937.86
6937.91
6937.96
6938.03
6938.08
6938.1
6938.15
6938.19
6938.24
6938.3
6938.35
6938.4
6938.46
6938.51
6938.57
6938.63
6938.69
6938.75
6938.82
6938.88
6938.96
6939.03
6939.08
6939.15
6939.21
6939.29
6939.35
6939.43
6939.5
6939.58
6939.65
6939.74
6939.81
6939.9
6939.97
6940.06
6940.14
6940.22
6940.31
6940.37
6940.48
6940.54
6940.7
6940.78
6940.83
6940.9
6940.98
6941.06
6941.14
6941.22
6941.3
6941.37
6941.45
6941.53
6941.61
6941.68
6941.76
6941.84
6941.92
6942
6942.08
6942.16
6942.24
6942.32
6942.4
6942.48
6942.56
6942.65
6942.73
6942.82
6942.9
6942.99
6943.07
6943.16
6943.25
6943.33
6943.42
6943.51
6943.6
6943.68
6943.77
6943.86
6943.95
6944.04
6944.13
6944.22
6944.3
6944.39
6944.48
6944.57
6944.66
6944.75
6944.84
6944.93
6945.02
6945.11
6945.2
6945.29
6945.37
6945.46
6945.55
6945.64
6945.73
6945.82
6945.91
6946
6946.08
6946.17
6946.26
6946.35
6946.43
6946.52
6946.61
6946.7
6946.78
6946.87
6946.96
6947.04
6947.13
6947.21
6947.3
6947.38
6947.47
6947.55
6947.64
6947.72
6947.81
6947.89
6947.97
6948.06
6948.14
6948.22
6948.3
6948.39
6948.46
6948.58
6114.72
6119.6
6121.25
6122.95
6124.75
6126.66
6128.78
6131.22
6133.85
6136.59
6139.53
6142.72
6146.13
6149.81
6153.7
6157.8
6162.09
6166.58
6171.3
6176.27
6181.47
6186.87
6192.46
6198.26
6204.25
6210.42
6216.77
6223.34
6230.13
6237.12
6244.27
6251.58
6259.05
6266.68
6274.47
6282.43
6290.57
6298.86
6307.29
6315.85
6324.55
6333.37
6342.3
6351.34
6360.53
6369.86
6379.3
6388.81
6398.4
6408.09
6417.87
6427.77
6437.76
6447.85
6458
6468.2
6478.43
6488.72
6499.09
6509.51
6519.96
6530.46
6541.01
6551.59
6562.17
6572.74
6583.33
6593.92
6604.51
6615.07
6625.6
6636.11
6646.61
6657.11
6667.6
6678.1
6688.61
6699.16
6709.74
6720.35
6731.03
6741.79
6752.64
6763.57
6774.53
6785.53
6796.55
6807.55
6818.73
6829.95
6841.02
6852.25
6862.98
6871.8
6881.68
6901.44
6913.81
6927.36
6939.89
6952.54
6965.26
6979.04
6992.25
7005.48
7018.9
7031.96
7045.31
7058.48
7071.66
7084.77
7097.68
7110.54
7123.34
7136.13
7148.97
7161.57
7173.24
7185.23
7197.35
7209.51
7221.11
7232.6
7243.67
7254.54
7265.24
7275.69
7285.86
7295.85
7305.52
7315.14
7324.28
7333.25
7341.95
7350.19
7358.27
7365.91
7373.21
7380.31
7387.21
7393.81
7400.16
7406.23
7411.92
7417.32
7422.37
7427.1
7431.47
7435.48
7439.09
7442.33
7445.19
7447.67
7449.74
7451.41
7452.69
7453.57
7454.06
7454.14
7453.82
7453.1
7452
7450.51
7448.65
7446.4
7443.79
7440.82
7437.5
7433.83
7429.83
7425.51
7420.87
7415.94
7410.7
7405.19
7399.41
7393.38
7387.1
7380.59
7373.85
7366.91
7359.78
7352.46
7344.97
7337.33
7329.54
7321.61
7313.57
7305.41
7297.17
7288.84
7280.44
7271.97
7263.46
7254.9
7246.32
7237.71
7229.11
7220.5
7211.9
7203.32
7194.76
7186.25
7177.77
7169.34
7160.97
7152.66
7144.42
7136.26
7128.17
7120.16
7112.24
7104.42
7096.69
7089.05
7081.51
7074.08
7066.75
7059.53
7052.43
7045.43
7038.53
7031.75
7025.09
7018.53
7012.09
7005.76
6999.55
6993.45
6987.45
6981.58
6975.81
6970.16
6964.61
6959.18
6953.85
6948.63
6943.52
6938.51
6933.6
6928.8
6924.1
6919.5
6914.99
6910.59
6906.28
6902.07
6897.95
6893.92
6889.98
6886.13
6882.37
6878.69
6875.1
6871.59
6868.17
6864.82
6861.55
6858.36
6855.25
6852.2
6849.24
6846.34
6843.51
6840.76
6838.07
6835.44
6832.88
6830.38
6827.94
6825.57
6823.25
6820.99
6818.79
6816.64
6814.55
6812.51
6810.52
6808.58
6806.69
6804.84
6803.05
6801.3
6799.59
6797.92
6796.3
6794.72
6793.18
6791.68
6790.21
6788.79
6787.4
6786.04
6784.72
6783.43
6782.17
6780.94
6779.75
6778.58
6777.44
6776.33
6775.25
6774.19
6773.16
6772.15
6771.16
6770.2
6769.26
6768.35
6767.45
6766.57
6765.72
6764.88
6764.06
6763.27
6762.49
6761.73
6760.98
6760.26
6759.55
6758.87
6758.2
6757.54
6756.91
6756.29
6755.7
6755.11
6754.55
6754
6753.47
6752.96
6752.46
6751.97
6751.5
6751.05
6750.61
6750.19
6749.78
6749.38
6749
6748.63
6748.27
6747.93
6747.6
6747.28
6746.97
6746.67
6746.39
6746.11
6745.85
6745.59
6745.35
6745.11
6744.88
6744.67
6744.46
6744.26
6744.06
6743.88
6743.7
6743.54
6743.37
6743.22
6743.07
6742.93
6742.8
6742.67
6742.55
6742.43
6742.32
6742.22
6742.12
6742.03
6741.94
6741.86
6741.78
6741.71
6741.64
6741.58
6741.52
6741.47
6741.42
6741.37
6741.33
6741.29
6741.26
6741.23
6741.2
6741.18
6741.16
6741.14
6741.13
6741.12
6741.11
6741.11
6741.11
6741.11
6741.12
6741.13
6741.14
6741.15
6741.17
6741.19
6741.21
6741.23
6741.26
6741.29
6741.32
6741.35
6741.39
6741.41
6741.46
6741.49
6741.54
6741.58
6741.66
6741.7
6741.71
6741.76
6741.8
6741.85
6741.89
6741.95
6741.99
6742.05
6742.1
6742.16
6742.21
6742.27
6742.33
6742.39
6742.45
6742.53
6742.59
6742.64
6742.71
6742.76
6742.84
6742.9
6742.98
6743.05
6743.13
6743.2
6743.28
6743.35
6743.44
6743.5
6743.6
6743.67
6743.76
6743.83
6743.93
6743.99
6744.14
6744.22
6744.27
6744.34
6744.42
6744.5
6744.58
6744.67
6744.75
6744.83
6744.91
6744.99
6745.07
6745.15
6745.23
6745.31
6745.38
6745.46
6745.54
6745.62
6745.7
6745.78
6745.86
6745.94
6746.03
6746.11
6746.19
6746.27
6746.36
6746.44
6746.53
6746.61
6746.7
6746.78
6746.87
6746.95
6747.04
6747.13
6747.22
6747.3
6747.39
6747.48
6747.57
6747.66
6747.75
6747.84
6747.92
6748.01
6748.1
6748.19
6748.28
6748.37
6748.46
6748.55
6748.64
6748.73
6748.82
6748.91
6749
6749.09
6749.18
6749.26
6749.35
6749.44
6749.53
6749.62
6749.71
6749.8
6749.89
6749.97
6750.06
6750.15
6750.24
6750.32
6750.41
6750.5
6750.59
6750.67
6750.76
6750.84
6750.93
6751.02
6751.1
6751.19
6751.27
6751.36
6751.44
6751.53
6751.61
6751.69
6751.78
6751.86
6751.94
6752.03
6752.11
6752.19
6752.26
6752.38
5915.66
5920.63
5922.23
5923.88
5925.63
5927.49
5929.56
5931.95
5934.53
5937.22
5940.14
5943.31
5946.68
5950.35
5954.25
5958.35
5962.65
5967.16
5971.88
5976.84
5982.06
5987.49
5993.12
5998.95
6004.97
6011.18
6017.57
6024.17
6031
6038.02
6045.23
6052.6
6060.13
6067.82
6075.65
6083.65
6091.84
6100.19
6108.69
6117.33
6126.08
6134.95
6143.94
6153.07
6162.34
6171.72
6181.22
6190.8
6200.46
6210.21
6220.07
6230.03
6240.08
6250.23
6260.47
6270.76
6281.1
6291.47
6301.9
6312.38
6322.91
6333.5
6344.15
6354.83
6365.52
6376.21
6386.92
6397.65
6408.37
6419.08
6429.79
6440.49
6451.2
6461.89
6472.6
6483.33
6494.1
6504.89
6515.73
6526.59
6537.51
6548.48
6559.51
6570.6
6581.75
6592.96
6604.21
6615.44
6626.68
6637.95
6649.23
6660.76
6672.37
6683.74
6695.29
6706.34
6715.42
6725.71
6745.85
6758.37
6771.95
6784.89
6797.7
6810.75
6824.66
6838.03
6851.22
6864.64
6877.59
6890.79
6903.68
6916.67
6929.55
6942.15
6954.74
6967.15
6979.56
6992.07
7004.37
7015.61
7027.06
7038.35
7049.88
7060.84
7071.72
7082.12
7092.41
7102.37
7112.24
7121.72
7131.06
7140.12
7148.99
7157.68
7165.84
7173.94
7181.66
7188.64
7195.71
7201.94
7208.3
7214.3
7220.05
7225.45
7230.55
7235.21
7239.56
7243.54
7247.15
7250.39
7253.24
7255.69
7257.74
7259.4
7260.65
7261.51
7261.97
7262.01
7261.65
7260.89
7259.74
7258.21
7256.28
7253.98
7251.3
7248.25
7244.85
7241.1
7237.02
7232.61
7227.88
7222.85
7217.52
7211.91
7206.03
7199.89
7193.5
7186.88
7180.04
7172.99
7165.75
7158.32
7150.72
7142.97
7135.07
7127.04
7118.89
7110.63
7102.28
7093.85
7085.34
7076.78
7068.17
7059.52
7050.84
7042.14
7033.45
7024.75
7016.07
7007.41
6998.78
6990.18
6981.63
6973.14
6964.7
6956.33
6948.03
6939.8
6931.66
6923.6
6915.64
6907.77
6899.99
6892.32
6884.75
6877.28
6869.92
6862.67
6855.53
6848.51
6841.6
6834.8
6828.12
6821.55
6815.09
6808.75
6802.53
6796.42
6790.43
6784.54
6778.77
6773.12
6767.57
6762.14
6756.81
6751.59
6746.48
6741.48
6736.58
6731.78
6727.09
6722.49
6718
6713.6
6709.29
6705.09
6700.98
6696.96
6693.03
6689.19
6685.43
6681.77
6678.18
6674.68
6671.27
6667.93
6664.67
6661.49
6658.39
6655.35
6652.4
6649.51
6646.69
6643.94
6641.27
6638.65
6636.1
6633.61
6631.18
6628.82
6626.51
6624.26
6622.06
6619.92
6617.84
6615.8
6613.82
6611.89
6610.01
6608.17
6606.38
6604.64
6602.94
6601.28
6599.66
6598.09
6596.55
6595.06
6593.6
6592.18
6590.79
6589.44
6588.12
6586.84
6585.59
6584.37
6583.18
6582.01
6580.88
6579.77
6578.7
6577.64
6576.61
6575.61
6574.63
6573.67
6572.74
6571.83
6570.94
6570.06
6569.21
6568.38
6567.57
6566.78
6566
6565.25
6564.51
6563.79
6563.09
6562.41
6561.74
6561.09
6560.47
6559.85
6559.26
6558.68
6558.12
6557.58
6557.05
6556.54
6556.05
6555.57
6555.11
6554.66
6554.22
6553.8
6553.4
6553.01
6552.63
6552.26
6551.91
6551.57
6551.24
6550.92
6550.62
6550.32
6550.04
6549.77
6549.51
6549.26
6549.01
6548.78
6548.56
6548.34
6548.14
6547.94
6547.75
6547.57
6547.39
6547.23
6547.07
6546.92
6546.77
6546.63
6546.5
6546.38
6546.26
6546.14
6546.04
6545.93
6545.84
6545.75
6545.66
6545.58
6545.5
6545.43
6545.37
6545.3
6545.25
6545.19
6545.15
6545.1
6545.06
6545.02
6544.99
6544.96
6544.94
6544.91
6544.9
6544.88
6544.87
6544.86
6544.86
6544.85
6544.86
6544.86
6544.87
6544.88