/*--------------------------------*- C++ -*----------------------------------*\
| =========                 |                                                 |
| \\      /  F ield         | OpenFOAM: The Open Source CFD Toolbox           |
|  \\    /   O peration     | Version:  v2006                                 |
|   \\  /    A nd           | Website:  www.openfoam.com                      |
|    \\/     M anipulation  |                                                 |
\*---------------------------------------------------------------------------*/
FoamFile
{
    version     2.0;
    format      ascii;
    class       surfaceScalarField;
    location    "3.5";
    object      phi;
}
// * * * * * * * * * * * * * * * * * * * * * * * * * * * * * * * * * * * * * //

dimensions      [0 3 -1 0 0 0 0];
oriented        oriented;


internalField   nonuniform List<scalar> 
65390
(
-0.000133481
-1.71882e-06
-0.000132899
-5.82358e-07
-0.000132292
-6.06943e-07
-0.000131616
-6.75942e-07
-0.000130857
-7.58712e-07
-0.000130011
-8.46035e-07
-0.000129177
-8.34331e-07
-0.000128367
-8.09918e-07
-0.000127551
-8.16238e-07
-0.000126707
-8.44138e-07
-0.000125779
-9.28784e-07
-0.000124806
-9.73259e-07
-0.000123782
-1.02442e-06
-0.000122758
-1.02476e-06
-0.000121753
-1.00466e-06
-0.000120785
-9.69058e-07
-0.000119822
-9.63732e-07
-0.000118915
-9.0786e-07
-0.00011804
-8.75795e-07
-0.000117077
-9.64116e-07
-0.000115965
-1.11164e-06
-0.000114741
-1.22425e-06
-0.000113521
-1.22035e-06
-0.000112502
-1.01944e-06
-0.000111702
-8.00588e-07
-0.00011094
-7.63243e-07
-0.00010996
-9.80613e-07
-0.000108717
-1.24356e-06
-0.000107434
-1.28324e-06
-0.000106287
-1.14693e-06
-0.000105123
-1.16452e-06
-0.000103851
-1.27242e-06
-0.000102539
-1.31133e-06
-0.000101465
-1.07435e-06
-0.000100582
-8.82674e-07
-9.96451e-05
-9.37303e-07
-9.84485e-05
-1.19631e-06
-9.7037e-05
-1.4113e-06
-9.55843e-05
-1.4524e-06
-9.43618e-05
-1.22225e-06
-9.33611e-05
-1.00048e-06
-9.22709e-05
-1.09002e-06
-9.08441e-05
-1.42663e-06
-8.91078e-05
-1.73621e-06
-8.74257e-05
-1.68198e-06
-8.60573e-05
-1.36824e-06
-8.50253e-05
-1.03192e-06
-8.40164e-05
-1.00888e-06
-8.26834e-05
-1.33301e-06
-8.11098e-05
-1.57367e-06
-7.9407e-05
-1.70286e-06
-7.76504e-05
-1.75686e-06
-7.60579e-05
-1.59281e-06
-7.46763e-05
-1.38196e-06
-7.33976e-05
-1.27905e-06
-7.19458e-05
-1.45234e-06
-7.02399e-05
-1.70659e-06
-6.84547e-05
-1.78586e-06
-6.68193e-05
-1.63625e-06
-6.53189e-05
-1.50134e-06
-6.37377e-05
-1.5822e-06
-6.18823e-05
-1.8566e-06
-5.98518e-05
-2.0317e-06
-5.80536e-05
-1.79946e-06
-5.6577e-05
-1.478e-06
-5.51992e-05
-1.37916e-06
-5.37058e-05
-1.49485e-06
-5.19307e-05
-1.77649e-06
-5.00651e-05
-1.86711e-06
-4.8377e-05
-1.68949e-06
-4.67152e-05
-1.66321e-06
-4.48709e-05
-1.84571e-06
-4.26791e-05
-2.19315e-06
-3.99547e-05
-2.72577e-06
-3.68225e-05
-3.13337e-06
-3.3116e-05
-3.7076e-06
-2.83917e-05
-4.72527e-06
-2.16404e-05
-6.75206e-06
-1.6218e-05
-5.42283e-06
-1.46758e-05
-1.54227e-06
-1.42513e-05
-4.24517e-07
-1.52596e-05
1.00826e-06
-1.58662e-05
6.0655e-07
-1.67638e-05
8.97563e-07
-1.74023e-05
6.38617e-07
-1.72764e-05
-1.2598e-07
-1.71577e-05
-1.18521e-07
-1.67282e-05
-4.29398e-07
-1.62269e-05
-5.01236e-07
-1.57314e-05
-4.95535e-07
-1.53245e-05
-4.06919e-07
-1.49675e-05
-3.56989e-07
-1.47168e-05
-2.50678e-07
-1.45083e-05
-2.08539e-07
-1.43773e-05
-1.31032e-07
-1.42779e-05
-9.94252e-08
-1.45058e-05
2.27857e-07
-1.49754e-05
4.69594e-07
-1.6057e-05
1.08146e-06
-1.74864e-05
1.42944e-06
-1.85233e-05
1.03687e-06
-1.89376e-05
4.143e-07
-1.86336e-05
-3.03908e-07
-1.82605e-05
-3.73084e-07
-1.76207e-05
-6.39697e-07
-1.69611e-05
-6.59563e-07
-1.65231e-05
-4.37976e-07
-1.62323e-05
-2.90864e-07
-1.58156e-05
-4.16594e-07
-1.52058e-05
-6.09732e-07
-1.46415e-05
-5.64204e-07
-1.39906e-05
-6.50819e-07
-1.33438e-05
-6.46617e-07
-1.27355e-05
-6.08116e-07
-1.22192e-05
-5.16123e-07
-1.17478e-05
-4.71216e-07
-1.14816e-05
-2.66044e-07
-1.13301e-05
-1.51421e-07
-1.10581e-05
-2.71837e-07
-1.06028e-05
-4.55093e-07
-1.00488e-05
-5.53904e-07
-9.52231e-06
-5.26353e-07
-8.85383e-06
-6.6837e-07
-8.15842e-06
-6.95328e-07
-7.5542e-06
-6.04191e-07
-6.93741e-06
-6.16793e-07
-6.30614e-06
-6.31309e-07
-5.68153e-06
-6.24677e-07
-5.03362e-06
-6.4802e-07
-4.38263e-06
-6.51131e-07
-3.74964e-06
-6.33157e-07
-3.11134e-06
-6.38499e-07
-2.48383e-06
-6.27759e-07
-1.86866e-06
-6.15459e-07
-1.26735e-06
-6.01638e-07
-6.69653e-07
-5.98066e-07
-7.43032e-08
-5.95742e-07
5.07706e-07
-5.82423e-07
1.07274e-06
-5.65472e-07
1.62777e-06
-5.55484e-07
2.16972e-06
-5.42425e-07
2.69047e-06
-5.21215e-07
3.19357e-06
-5.03551e-07
3.68846e-06
-4.95304e-07
4.17269e-06
-4.8459e-07
4.638e-06
-4.65614e-07
5.08631e-06
-4.48572e-07
5.52068e-06
-4.34558e-07
5.94555e-06
-4.24992e-07
6.36154e-06
-4.16059e-07
6.76261e-06
-4.01073e-07
7.14561e-06
-3.82958e-07
7.51293e-06
-3.67219e-07
7.8716e-06
-3.58533e-07
8.22443e-06
-3.52641e-07
8.56744e-06
-3.42787e-07
8.89189e-06
-3.24189e-07
9.20228e-06
-3.10107e-07
9.50493e-06
-3.02339e-07
9.80014e-06
-2.94895e-07
1.00845e-05
-2.83996e-07
1.03514e-05
-2.66641e-07
1.06081e-05
-2.56342e-07
1.08585e-05
-2.5018e-07
1.10988e-05
-2.39964e-07
1.13232e-05
-2.24214e-07
1.1535e-05
-2.11699e-07
1.174e-05
-2.04832e-07
1.19364e-05
-1.96353e-07
1.2119e-05
-1.82661e-07
1.22867e-05
-1.67733e-07
1.24455e-05
-1.5887e-07
1.25984e-05
-1.53017e-07
1.27403e-05
-1.42067e-07
1.28678e-05
-1.27754e-07
1.29842e-05
-1.16551e-07
1.30921e-05
-1.08092e-07
1.31919e-05
-9.99085e-08
1.32823e-05
-9.05322e-08
1.33617e-05
-7.95093e-08
1.34298e-05
-6.82129e-08
1.3489e-05
-5.93804e-08
1.35413e-05
-5.23316e-08
1.35852e-05
-4.39705e-08
1.3617e-05
-3.18916e-08
1.36394e-05
-2.24694e-08
1.36578e-05
-1.84788e-08
1.36693e-05
-1.15149e-08
1.36701e-05
-8.76056e-10
1.36618e-05
8.22906e-09
1.36465e-05
1.52226e-08
1.36258e-05
2.0656e-08
1.35975e-05
2.82147e-08
1.35615e-05
3.59433e-08
1.35193e-05
4.21599e-08
1.34709e-05
4.8329e-08
1.34172e-05
5.36094e-08
1.33557e-05
6.13599e-08
1.32888e-05
6.68571e-08
1.32192e-05
6.94495e-08
1.31456e-05
7.35181e-08
1.30654e-05
8.00996e-08
1.29775e-05
8.78028e-08
1.28854e-05
9.19502e-08
1.27911e-05
9.41858e-08
1.26949e-05
9.60494e-08
1.25957e-05
9.91294e-08
1.24904e-05
1.05146e-07
1.23804e-05
1.09852e-07
1.22689e-05
1.11342e-07
1.21571e-05
1.11697e-07
1.20413e-05
1.15615e-07
1.19212e-05
1.19984e-07
1.17992e-05
1.21924e-07
1.16762e-05
1.22871e-07
1.15548e-05
1.21335e-07
1.14308e-05
1.23879e-07
1.13027e-05
1.28e-07
1.11724e-05
1.30243e-07
1.10397e-05
1.32595e-07
1.09091e-05
1.30515e-07
1.07806e-05
1.28487e-07
1.06504e-05
1.30199e-07
1.05166e-05
1.33799e-07
1.0382e-05
1.34583e-07
1.02478e-05
1.34206e-07
1.01126e-05
1.3526e-07
9.97772e-06
1.3483e-07
9.84582e-06
1.31899e-07
9.71285e-06
1.32975e-07
9.57626e-06
1.36604e-07
9.44022e-06
1.3605e-07
9.3044e-06
1.35849e-07
9.17005e-06
1.34379e-07
9.03929e-06
1.30801e-07
8.90552e-06
1.33811e-07
8.76971e-06
1.35843e-07
8.63425e-06
1.35502e-07
8.50104e-06
1.33244e-07
8.3674e-06
1.33684e-07
8.23346e-06
1.33983e-07
8.10026e-06
1.33239e-07
7.9683e-06
1.31992e-07
7.83563e-06
1.32693e-07
7.70326e-06
1.32376e-07
7.57336e-06
1.29904e-07
7.43929e-06
1.34065e-07
7.3061e-06
1.33184e-07
7.17711e-06
1.28994e-07
7.04733e-06
1.2978e-07
6.91628e-06
1.31066e-07
6.78563e-06
1.3066e-07
6.65493e-06
1.30713e-07
6.52631e-06
1.28634e-07
6.39593e-06
1.30388e-07
6.26552e-06
1.3041e-07
6.13827e-06
1.27241e-07
6.01122e-06
1.2704e-07
5.88205e-06
1.29148e-07
5.75306e-06
1.2897e-07
5.62567e-06
1.27372e-07
5.50103e-06
1.24617e-07
5.37462e-06
1.26377e-07
5.247e-06
1.27599e-07
5.11997e-06
1.27e-07
4.99332e-06
1.2662e-07
4.86695e-06
1.2634e-07
4.74362e-06
1.23296e-07
4.62158e-06
1.22007e-07
4.49856e-06
1.22992e-07
4.37428e-06
1.24247e-07
4.24974e-06
1.24511e-07
4.12599e-06
1.23726e-07
4.00335e-06
1.22615e-07
3.88182e-06
1.21494e-07
3.76146e-06
1.20332e-07
3.6406e-06
1.20825e-07
3.52007e-06
1.20503e-07
3.40038e-06
1.19657e-07
3.28183e-06
1.18509e-07
3.16223e-06
1.19564e-07
3.04264e-06
1.19563e-07
2.92526e-06
1.17348e-07
2.80958e-06
1.15648e-07
2.69527e-06
1.14281e-07
2.58126e-06
1.13975e-07
2.46678e-06
1.14444e-07
2.35265e-06
1.14109e-07
2.23991e-06
1.12711e-07
2.1284e-06
1.11477e-07
2.01928e-06
1.09093e-07
1.91138e-06
1.07867e-07
1.8031e-06
1.08252e-07
1.69551e-06
1.07562e-07
1.58941e-06
1.06066e-07
1.48445e-06
1.04937e-07
1.38122e-06
1.03202e-07
1.27949e-06
1.01699e-07
1.17845e-06
1.01008e-07
1.07881e-06
9.96131e-08
9.80606e-07
9.81805e-08
8.84024e-07
9.65566e-08
7.89465e-07
9.45352e-08
6.9602e-07
9.34228e-08
6.04206e-07
9.1791e-08
5.14137e-07
9.00483e-08
4.26432e-07
8.76834e-08
3.40912e-07
8.55004e-08
2.56212e-07
8.46796e-08
1.73568e-07
8.26239e-08
9.29565e-08
8.05913e-08
1.469e-08
7.82464e-08
-6.14348e-08
7.61046e-08
-1.35796e-07
7.43409e-08
-2.0819e-07
7.23741e-08
-2.78521e-07
7.03112e-08
-3.46606e-07
6.80654e-08
-4.12702e-07
6.60768e-08
-4.77102e-07
6.43809e-08
-5.39524e-07
6.24045e-08
-5.99904e-07
6.03618e-08
-6.57973e-07
5.80522e-08
-7.14006e-07
5.60174e-08
-7.68672e-07
5.46508e-08
-8.21343e-07
5.26558e-08
-8.71814e-07
5.0457e-08
-9.20035e-07
4.82083e-08
-9.66788e-07
4.67403e-08
-1.01185e-06
4.50509e-08
-1.05503e-06
4.31672e-08
-1.0964e-06
4.1357e-08
-1.13585e-06
3.94416e-08
-1.17338e-06
3.75158e-08
-1.20912e-06
3.57331e-08
-1.24314e-06
3.401e-08
-1.2755e-06
3.23466e-08
-1.30622e-06
3.07132e-08
-1.3353e-06
2.90672e-08
-1.36268e-06
2.7372e-08
-1.38838e-06
2.56914e-08
-1.4127e-06
2.43136e-08
-1.43568e-06
2.29714e-08
-1.45723e-06
2.1543e-08
-1.47732e-06
2.00814e-08
-1.4959e-06
1.8572e-08
-1.51302e-06
1.71054e-08
-1.52893e-06
1.59026e-08
-1.54365e-06
1.47142e-08
-1.55716e-06
1.35058e-08
-1.56929e-06
1.21221e-08
-1.58016e-06
1.08603e-08
-1.59012e-06
9.9512e-09
-1.59904e-06
8.91924e-09
-1.6069e-06
7.85469e-09
-1.61367e-06
6.75531e-09
-1.61943e-06
5.75868e-09
-1.6244e-06
4.96165e-09
-1.62848e-06
4.0747e-09
-1.63163e-06
3.14121e-09
-1.63384e-06
2.21227e-09
-1.63535e-06
1.50309e-09
-1.63615e-06
7.97979e-10
-1.63621e-06
5.3485e-11
-1.63559e-06
-6.25459e-10
-1.63423e-06
-1.36259e-09
-1.63221e-06
-2.02273e-09
-1.62972e-06
-2.4951e-09
-1.62665e-06
-3.06984e-09
-1.62304e-06
-3.61334e-09
-1.61889e-06
-4.15388e-09
-1.61414e-06
-4.76025e-09
-1.60889e-06
-5.24854e-09
-1.60321e-06
-5.68321e-09
-1.59712e-06
-6.09919e-09
-1.59057e-06
-6.55188e-09
-1.58361e-06
-6.95914e-09
-1.57638e-06
-7.23814e-09
-1.56882e-06
-7.56138e-09
-1.56096e-06
-7.86193e-09
-1.5528e-06
-8.16584e-09
-1.54427e-06
-8.52937e-09
-1.53545e-06
-8.8314e-09
-1.52641e-06
-9.03599e-09
-1.51721e-06
-9.21046e-09
-1.50784e-06
-9.37182e-09
-1.49827e-06
-9.56889e-09
-1.48852e-06
-9.74823e-09
-1.47859e-06
-9.93374e-09
-1.46849e-06
-1.01075e-08
-1.45828e-06
-1.02077e-08
-1.44794e-06
-1.03457e-08
-1.43737e-06
-1.0572e-08
-1.42661e-06
-1.07563e-08
-1.41589e-06
-1.07249e-08
-1.40503e-06
-1.0859e-08
-1.39404e-06
-1.09988e-08
-1.383e-06
-1.10352e-08
-1.37189e-06
-1.11136e-08
-1.36066e-06
-1.12319e-08
-1.3493e-06
-1.13551e-08
-1.33787e-06
-1.1433e-08
-1.32637e-06
-1.15074e-08
-1.31483e-06
-1.15362e-08
-1.3033e-06
-1.15286e-08
-1.29182e-06
-1.14846e-08
-1.28031e-06
-1.15123e-08
-1.26891e-06
-1.13951e-08
-1.25743e-06
-1.14817e-08
-1.24604e-06
-1.13943e-08
-1.2347e-06
-1.13374e-08
-1.22341e-06
-1.12986e-08
-1.21209e-06
-1.13153e-08
-1.20066e-06
-1.14363e-08
-1.18942e-06
-1.12372e-08
-1.178e-06
-1.14217e-08
-1.1662e-06
-1.18026e-08
-1.15456e-06
-1.16427e-08
-1.14202e-06
-1.25356e-08
-1.12942e-06
-1.25991e-08
-1.1186e-06
-1.08201e-08
-1.10693e-06
-1.16765e-08
-1.09465e-06
-1.22765e-08
-1.08368e-06
-1.09734e-08
-1.06443e-06
-1.92436e-08
-1.04594e-06
-1.84954e-08
-1.04006e-06
-5.88297e-09
-1.02616e-06
-1.38976e-08
-1.02281e-06
-3.35349e-09
-1.03268e-06
9.87066e-09
-1.06633e-06
3.36513e-08
-1.10028e-06
3.39546e-08
-1.11057e-06
1.02922e-08
-1.11888e-06
8.3037e-09
-1.11893e-06
5.40873e-11
-1.11711e-06
-1.82262e-09
-1.11233e-06
-4.77423e-09
-1.10718e-06
-5.14763e-09
-1.10059e-06
-6.58959e-09
-1.09331e-06
-7.27653e-09
-1.08428e-06
-9.02681e-09
-1.0756e-06
-8.68219e-09
-1.06245e-06
-1.31429e-08
-1.04918e-06
-1.32634e-08
-1.04104e-06
-8.14127e-09
-1.02895e-06
-1.20791e-08
-1.0207e-06
-8.2545e-09
-1.01781e-06
-2.87586e-09
-1.02407e-06
6.26522e-09
-1.03024e-06
6.17301e-09
-1.02624e-06
-3.99329e-09
-1.02141e-06
-4.81736e-09
-1.01435e-06
-7.05484e-09
-1.0056e-06
-8.73708e-09
-9.97555e-07
-8.03966e-09
-9.87471e-07
-1.00744e-08
-9.7796e-07
-9.50051e-09
-9.64365e-07
-1.35832e-08
-9.50647e-07
-1.37056e-08
-9.40493e-07
-1.01399e-08
-9.27561e-07
-1.29168e-08
-9.15496e-07
-1.20492e-08
-9.07543e-07
-7.93577e-09
-8.69308e-07
-3.82174e-08
-8.35806e-07
-3.3486e-08
-8.33921e-07
-1.87459e-09
-8.04041e-07
-2.98901e-08
-8.45322e-07
4.123e-08
-9.07121e-07
6.16468e-08
-1.13298e-06
2.25616e-07
-1.36372e-06
2.30307e-07
-1.51387e-06
1.49364e-07
-1.61518e-06
1.00602e-07
-1.68385e-06
6.80239e-08
-1.73199e-06
4.75502e-08
-1.76657e-06
3.40594e-08
-1.79202e-06
2.49718e-08
-1.81103e-06
1.85771e-08
-1.82528e-06
1.38635e-08
-1.83592e-06
1.02842e-08
-1.84373e-06
7.49033e-09
-1.8492e-06
5.17751e-09
-1.85266e-06
3.19685e-09
-1.85447e-06
1.56601e-09
-1.85486e-06
1.7675e-10
-1.85402e-06
-1.04615e-09
-1.8523e-06
-1.8994e-09
-1.84964e-06
-2.82281e-09
-1.84608e-06
-3.7028e-09
-1.84171e-06
-4.50558e-09
-1.83663e-06
-5.20728e-09
-1.83093e-06
-5.8087e-09
-1.8247e-06
-6.32335e-09
-1.81802e-06
-6.77451e-09
-1.81091e-06
-7.18821e-09
-1.80334e-06
-7.65332e-09
-1.79534e-06
-8.06647e-09
-1.78693e-06
-8.46255e-09
-1.77811e-06
-8.88142e-09
-1.76884e-06
-9.31644e-09
-1.75911e-06
-9.76641e-09
-1.74891e-06
-1.024e-08
-1.73822e-06
-1.07212e-08
-1.72707e-06
-1.11829e-08
-1.7155e-06
-1.15981e-08
-1.70358e-06
-1.19399e-08
-1.6914e-06
-1.22077e-08
-1.67905e-06
-1.23597e-08
-1.66657e-06
-1.25e-08
-1.65395e-06
-1.26365e-08
-1.64127e-06
-1.26927e-08
-1.62858e-06
-1.26984e-08
-1.61593e-06
-1.26561e-08
-1.60336e-06
-1.25752e-08
-1.59088e-06
-1.2487e-08
-1.57845e-06
-1.24319e-08
-1.56602e-06
-1.24422e-08
-1.55349e-06
-1.25273e-08
-1.54082e-06
-1.26779e-08
-1.52794e-06
-1.28781e-08
-1.51483e-06
-1.31104e-08
-1.50149e-06
-1.33363e-08
-1.48802e-06
-1.34789e-08
-1.47456e-06
-1.34508e-08
-1.46132e-06
-1.32421e-08
-1.44832e-06
-1.2997e-08
-1.4354e-06
-1.29241e-08
-1.42224e-06
-1.31605e-08
-1.40869e-06
-1.35437e-08
-1.39505e-06
-1.36403e-08
-1.38182e-06
-1.32247e-08
-1.36914e-06
-1.26764e-08
-1.35693e-06
-1.22076e-08
-1.34444e-06
-1.24873e-08
-1.33135e-06
-1.30816e-08
-1.31817e-06
-1.3179e-08
-1.30549e-06
-1.26742e-08
-1.2933e-06
-1.21876e-08
-1.28072e-06
-1.25762e-08
-1.26726e-06
-1.3446e-08
-1.25364e-06
-1.36141e-08
-1.24044e-06
-1.32001e-08
-1.22724e-06
-1.31866e-08
-1.21327e-06
-1.39604e-08
-1.19911e-06
-1.41521e-08
-1.18567e-06
-1.34303e-08
-1.17283e-06
-1.28326e-08
-1.15977e-06
-1.30563e-08
-1.147e-06
-1.27581e-08
-1.1342e-06
-1.27916e-08
-8.76529e-09
-0.000133539
-3.46652e-06
-0.000132968
-1.15263e-06
-0.000132379
-1.19466e-06
-0.000131753
-1.30085e-06
-0.000131062
-1.44883e-06
-0.000130271
-1.63695e-06
-0.000129449
-1.65525e-06
-0.000128532
-1.72524e-06
-0.000127566
-1.7815e-06
-0.000126605
-1.8043e-06
-0.000125661
-1.87155e-06
-0.000124768
-1.86511e-06
-0.000123864
-1.92657e-06
-0.000122964
-1.92321e-06
-0.00012205
-1.9181e-06
-0.000121122
-1.89466e-06
-0.000120175
-1.90983e-06
-0.000119213
-1.86786e-06
-0.000118222
-1.86507e-06
-0.000117223
-1.96161e-06
-0.000116209
-2.12526e-06
-0.00011519
-2.2418e-06
-0.000114173
-2.23697e-06
-0.000113168
-2.0228e-06
-0.000112125
-1.84299e-06
-0.000111051
-1.83624e-06
-0.00010992
-2.11035e-06
-0.000108751
-2.41194e-06
-0.000107593
-2.4403e-06
-0.000106532
-2.20672e-06
-0.000105495
-2.20123e-06
-0.000104387
-2.38051e-06
-0.000103097
-2.60081e-06
-0.000101646
-2.52559e-06
-0.000100342
-2.18618e-06
-9.92321e-05
-2.04734e-06
-9.83176e-05
-2.11072e-06
-9.73758e-05
-2.35317e-06
-9.61223e-05
-2.70604e-06
-9.4626e-05
-2.71872e-06
-9.31381e-05
-2.48863e-06
-9.17908e-05
-2.43758e-06
-9.05599e-05
-2.65781e-06
-8.92366e-05
-3.0596e-06
-8.77077e-05
-3.21101e-06
-8.61523e-05
-2.92362e-06
-8.46981e-05
-2.48617e-06
-8.33571e-05
-2.34978e-06
-8.20708e-05
-2.61917e-06
-8.06045e-05
-3.03979e-06
-7.89618e-05
-3.34527e-06
-7.73162e-05
-3.40196e-06
-7.57166e-05
-3.1918e-06
-7.42453e-05
-2.85258e-06
-7.28883e-05
-2.6352e-06
-7.15045e-05
-2.83517e-06
-6.99562e-05
-3.25371e-06
-6.82869e-05
-3.45384e-06
-6.67161e-05
-3.20561e-06
-6.52426e-05
-2.97335e-06
-6.36858e-05
-3.13726e-06
-6.19538e-05
-3.58678e-06
-6.00845e-05
-3.89906e-06
-5.83775e-05
-3.50435e-06
-5.68758e-05
-2.97751e-06
-5.53203e-05
-2.93235e-06
-5.35205e-05
-3.29228e-06
-5.16303e-05
-3.66426e-06
-4.99202e-05
-3.57484e-06
-4.84069e-05
-3.2004e-06
-4.68145e-05
-3.25325e-06
-4.51718e-05
-3.48605e-06
-4.33089e-05
-4.05394e-06
-4.13679e-05
-4.66471e-06
-3.94787e-05
-5.02064e-06
-3.78796e-05
-5.30491e-06
-3.67397e-05
-5.86372e-06
-3.64132e-05
-7.0778e-06
-3.46277e-05
-7.20792e-06
-2.96958e-05
-6.47409e-06
-2.28809e-05
-7.23948e-06
-1.65167e-05
-5.35578e-06
-1.42607e-05
-1.64941e-06
-1.29907e-05
-3.72327e-07
-1.32148e-05
8.62799e-07
-1.3643e-05
3.02359e-07
-1.44654e-05
7.04167e-07
-1.51913e-05
2.96603e-07
-1.57488e-05
5.6436e-08
-1.5603e-05
-6.41103e-07
-1.53637e-05
-6.45913e-07
-1.49827e-05
-7.37798e-07
-1.45511e-05
-6.82002e-07
-1.41617e-05
-5.9778e-07
-1.37783e-05
-5.14164e-07
-1.34403e-05
-4.37123e-07
-1.31344e-05
-7.7728e-08
-1.2885e-05
2.20496e-07
-1.24964e-05
6.93211e-07
-1.26628e-05
1.59633e-06
-1.3231e-05
1.60547e-06
-1.42877e-05
1.47136e-06
-1.57616e-05
1.17036e-06
-1.69778e-05
8.43409e-07
-1.77137e-05
9.6448e-08
-1.77237e-05
-6.49346e-07
-1.7314e-05
-8.47531e-07
-1.677e-05
-8.34755e-07
-1.59307e-05
-1.25574e-06
-1.50078e-05
-1.53256e-06
-1.44209e-05
-1.15105e-06
-1.38957e-05
-1.17592e-06
-1.33241e-05
-1.2182e-06
-1.27827e-05
-1.14943e-06
-1.21476e-05
-1.15127e-06
-1.14851e-05
-1.13378e-06
-1.08134e-05
-9.37742e-07
-1.02514e-05
-7.13434e-07
-9.74676e-06
-7.76465e-07
-9.51513e-06
-6.86743e-07
-9.44152e-06
-6.27549e-07
-9.18686e-06
-7.81067e-07
-8.7773e-06
-1.07802e-06
-8.28745e-06
-1.1853e-06
-7.75096e-06
-1.14084e-06
-7.04352e-06
-1.32442e-06
-6.29959e-06
-1.37547e-06
-5.65117e-06
-1.27334e-06
-5.01148e-06
-1.28798e-06
-4.3893e-06
-1.2736e-06
-3.78342e-06
-1.23933e-06
-3.15424e-06
-1.26799e-06
-2.51941e-06
-1.26291e-06
-1.89801e-06
-1.23719e-06
-1.28876e-06
-1.21124e-06
-6.87787e-07
-1.19939e-06
-9.62784e-08
-1.18762e-06
4.76252e-07
-1.15533e-06
1.04073e-06
-1.13033e-06
1.59793e-06
-1.11305e-06
2.14162e-06
-1.08644e-06
2.66673e-06
-1.0466e-06
3.17754e-06
-1.01458e-06
3.67685e-06
-9.94757e-07
4.16075e-06
-9.68572e-07
4.62583e-06
-9.30693e-07
5.07652e-06
-8.9919e-07
5.51852e-06
-8.76433e-07
5.94774e-06
-8.54033e-07
6.36176e-06
-8.29882e-07
6.75945e-06
-7.98555e-07
7.14354e-06
-7.66825e-07
7.51709e-06
-7.4055e-07
7.88093e-06
-7.2216e-07
8.23366e-06
-7.05164e-07
8.57276e-06
-6.81708e-07
8.89663e-06
-6.47893e-07
9.2106e-06
-6.23941e-07
9.51636e-06
-6.07978e-07
9.81186e-06
-5.90307e-07
1.00946e-05
-5.66622e-07
1.0364e-05
-5.35996e-07
1.06221e-05
-5.14464e-07
1.08714e-05
-4.99444e-07
1.11107e-05
-4.79263e-07
1.13369e-05
-4.50449e-07
1.15503e-05
-4.25084e-07
1.17544e-05
-4.09069e-07
1.19501e-05
-3.92055e-07
1.21327e-05
-3.65429e-07
1.23025e-05
-3.37582e-07
1.24621e-05
-3.18539e-07
1.2614e-05
-3.05088e-07
1.27543e-05
-2.82412e-07
1.28822e-05
-2.55815e-07
1.30005e-05
-2.34947e-07
1.31095e-05
-2.17158e-07
1.32077e-05
-1.98285e-07
1.3296e-05
-1.78912e-07
1.33748e-05
-1.58492e-07
1.34454e-05
-1.38905e-07
1.35066e-05
-1.20683e-07
1.3558e-05
-1.039e-07
1.3599e-05
-8.5192e-08
1.36307e-05
-6.37274e-08
1.36543e-05
-4.62409e-08
1.36716e-05
-3.5997e-08
1.36815e-05
-2.15432e-08
1.36827e-05
-2.29629e-09
1.3676e-05
1.47608e-08
1.3661e-05
3.00616e-08
1.36382e-05
4.31892e-08
1.36076e-05
5.86723e-08
1.35708e-05
7.25117e-08
1.35291e-05
8.36787e-08
1.34823e-05
9.48665e-08
1.34285e-05
1.07235e-07
1.33659e-05
1.23778e-07
1.32981e-05
1.34461e-07
1.32273e-05
1.40124e-07
1.31523e-05
1.48311e-07
1.30721e-05
1.60098e-07
1.29843e-05
1.7548e-07
1.28924e-05
1.83649e-07
1.27986e-05
1.87732e-07
1.27018e-05
1.92661e-07
1.26006e-05
2.00234e-07
1.24936e-05
2.11963e-07
1.23841e-05
2.19251e-07
1.22737e-05
2.21583e-07
1.21605e-05
2.2472e-07
1.20428e-05
2.33286e-07
1.19228e-05
2.39867e-07
1.1802e-05
2.42587e-07
1.16791e-05
2.45733e-07
1.15555e-05
2.4484e-07
1.14302e-05
2.49177e-07
1.13028e-05
2.55342e-07
1.11733e-05
2.59775e-07
1.10415e-05
2.64364e-07
1.09107e-05
2.61296e-07
1.07797e-05
2.59543e-07
1.0648e-05
2.61914e-07
1.05151e-05
2.66737e-07
1.03807e-05
2.68986e-07
1.02466e-05
2.68332e-07
1.01123e-05
2.69589e-07
9.97738e-06
2.69783e-07
9.84324e-06
2.66074e-07
9.70936e-06
2.66878e-07
9.57387e-06
2.7213e-07
9.43822e-06
2.71742e-07
9.3033e-06
2.70819e-07
9.1686e-06
2.69125e-07
9.03559e-06
2.63874e-07
8.90304e-06
2.66422e-07
8.76938e-06
2.69571e-07
8.63315e-06
2.71799e-07
8.49734e-06
2.69116e-07
8.36259e-06
2.68477e-07
8.22973e-06
2.66887e-07
8.09792e-06
2.65076e-07
7.96497e-06
2.64965e-07
7.83246e-06
2.65225e-07
7.70101e-06
2.63838e-07
7.56994e-06
2.6098e-07
7.43634e-06
2.67674e-07
7.30316e-06
2.66383e-07
7.17277e-06
2.59408e-07
7.04289e-06
2.59691e-07
6.91233e-06
2.61659e-07
6.78244e-06
2.60569e-07
6.65177e-06
2.61413e-07
6.52226e-06
2.58156e-07
6.39361e-06
2.59052e-07
6.26503e-06
2.5899e-07
6.13631e-06
2.55952e-07
6.00629e-06
2.57053e-07
5.87641e-06
2.59016e-07
5.74949e-06
2.55874e-07
5.62344e-06
2.53393e-07
5.49735e-06
2.50687e-07
5.3703e-06
2.53397e-07
5.24316e-06
2.54713e-07
5.1158e-06
2.54323e-07
4.98956e-06
2.52829e-07
4.86425e-06
2.51622e-07
4.74041e-06
2.47105e-07
4.61703e-06
2.45353e-07
4.49323e-06
2.46766e-07
4.36914e-06
2.48314e-07
4.24529e-06
2.48329e-07
4.12224e-06
2.46747e-07
3.99963e-06
2.45204e-07
3.87685e-06
2.44242e-07
3.75535e-06
2.41792e-07
3.63482e-06
2.41324e-07
3.51527e-06
2.40025e-07
3.39589e-06
2.39001e-07
3.27695e-06
2.37427e-07
3.15813e-06
2.38356e-07
3.03889e-06
2.38773e-07
2.92189e-06
2.34323e-07
2.80623e-06
2.31282e-07
2.69082e-06
2.29664e-07
2.576e-06
2.28771e-07
2.46188e-06
2.28543e-07
2.34831e-06
2.27652e-07
2.23626e-06
2.24736e-07
2.12508e-06
2.22625e-07
2.01503e-06
2.19115e-07
1.90615e-06
2.16726e-07
1.7979e-06
2.16467e-07
1.69068e-06
2.14762e-07
1.58511e-06
2.11607e-07
1.48053e-06
2.09487e-07
1.37684e-06
2.06863e-07
1.27445e-06
2.04062e-07
1.17361e-06
2.01823e-07
1.07438e-06
1.98819e-07
9.76572e-07
1.95966e-07
8.80226e-07
1.92879e-07
7.85268e-07
1.89472e-07
6.91798e-07
1.86872e-07
6.00562e-07
1.83006e-07
5.10908e-07
1.79683e-07
4.22929e-07
1.75643e-07
3.36917e-07
1.71493e-07
2.5233e-07
1.69247e-07
1.70035e-07
1.64898e-07
8.96754e-08
1.60931e-07
1.12637e-08
1.56638e-07
-6.5259e-08
1.52607e-07
-1.39662e-07
1.48723e-07
-2.11983e-07
1.44675e-07
-2.82302e-07
1.40611e-07
-3.50645e-07
1.36389e-07
-4.17085e-07
1.32498e-07
-4.81429e-07
1.28707e-07
-5.43676e-07
1.24634e-07
-6.03942e-07
1.20612e-07
-6.62253e-07
1.16349e-07
-7.18675e-07
1.12425e-07
-7.73336e-07
1.09299e-07
-8.25768e-07
1.05077e-07
-8.76233e-07
1.00911e-07
-9.24827e-07
9.6793e-08
-9.71593e-07
9.34971e-08
-1.01652e-06
8.99751e-08
-1.05959e-06
8.62244e-08
-1.10075e-06
8.25112e-08
-1.1401e-06
7.87834e-08
-1.17768e-06
7.50877e-08
-1.21346e-06
7.151e-08
-1.24747e-06
6.80161e-08
-1.27979e-06
6.466e-08
-1.31046e-06
6.13801e-08
-1.33948e-06
5.80858e-08
-1.3669e-06
5.47846e-08
-1.39274e-06
5.15311e-08
-1.41704e-06
4.86013e-08
-1.43986e-06
4.579e-08
-1.46127e-06
4.29458e-08
-1.4812e-06
4.00123e-08
-1.49971e-06
3.70824e-08
-1.51687e-06
3.42549e-08
-1.53273e-06
3.17671e-08
-1.54732e-06
2.92935e-08
-1.56065e-06
2.68389e-08
-1.57277e-06
2.42403e-08
-1.58376e-06
2.184e-08
-1.59367e-06
1.98617e-08
-1.60244e-06
1.76909e-08
-1.61017e-06
1.55804e-08
-1.6169e-06
1.34822e-08
-1.62265e-06
1.15075e-08
-1.62746e-06
9.77122e-09
-1.63133e-06
7.94128e-09
-1.63439e-06
6.20012e-09
-1.63672e-06
4.53895e-09
-1.63828e-06
3.0626e-09
-1.63894e-06
1.44958e-09
-1.63885e-06
-3.45831e-11
-1.63812e-06
-1.35533e-09
-1.63671e-06
-2.77584e-09
-1.63472e-06
-4.01782e-09
-1.63216e-06
-5.05379e-09
-1.62894e-06
-6.29364e-09
-1.62518e-06
-7.37512e-09
-1.62091e-06
-8.42917e-09
-1.6161e-06
-9.5701e-09
-1.61082e-06
-1.05385e-08
-1.60508e-06
-1.14235e-08
-1.59894e-06
-1.22382e-08
-1.5924e-06
-1.31021e-08
-1.58548e-06
-1.38796e-08
-1.57821e-06
-1.45068e-08
-1.57054e-06
-1.52371e-08
-1.56257e-06
-1.58398e-08
-1.55432e-06
-1.64105e-08
-1.54581e-06
-1.70501e-08
-1.53703e-06
-1.76116e-08
-1.52801e-06
-1.80585e-08
-1.5188e-06
-1.84257e-08
-1.50943e-06
-1.8742e-08
-1.49981e-06
-1.91936e-08
-1.48999e-06
-1.95704e-08
-1.48001e-06
-1.99139e-08
-1.46987e-06
-2.02543e-08
-1.45957e-06
-2.05053e-08
-1.44914e-06
-2.07819e-08
-1.43858e-06
-2.11372e-08
-1.42793e-06
-2.14066e-08
-1.41719e-06
-2.14668e-08
-1.40629e-06
-2.17566e-08
-1.39527e-06
-2.20193e-08
-1.38417e-06
-2.21334e-08
-1.37295e-06
-2.23354e-08
-1.36169e-06
-2.24944e-08
-1.35031e-06
-2.27437e-08
-1.3389e-06
-2.28397e-08
-1.32738e-06
-2.30327e-08
-1.31587e-06
-2.30447e-08
-1.30425e-06
-2.3148e-08
-1.29271e-06
-2.30291e-08
-1.28097e-06
-2.32515e-08
-1.26943e-06
-2.29329e-08
-1.25775e-06
-2.31698e-08
-1.24632e-06
-2.28263e-08
-1.23527e-06
-2.23828e-08
-1.22417e-06
-2.24066e-08
-1.21338e-06
-2.20996e-08
-1.20178e-06
-2.3041e-08
-1.19046e-06
-2.25556e-08
-1.17798e-06
-2.39084e-08
-1.16592e-06
-2.38555e-08
-1.15567e-06
-2.18944e-08
-1.14542e-06
-2.2793e-08
-1.13399e-06
-2.40219e-08
-1.12247e-06
-2.23473e-08
-1.10216e-06
-3.19811e-08
-1.08367e-06
-3.07713e-08
-1.07936e-06
-1.52874e-08
-1.07471e-06
-2.38923e-08
-1.07987e-06
-1.3336e-08
-1.09016e-06
4.40046e-09
-1.127e-06
2.29437e-08
-1.15982e-06
2.94666e-08
-1.16647e-06
1.65157e-08
-1.16209e-06
2.92659e-08
-1.14904e-06
2.09061e-08
-1.14451e-06
5.75228e-09
-1.13722e-06
1.01142e-09
-1.13272e-06
-4.44918e-09
-1.12662e-06
-7.93365e-09
-1.12099e-06
-1.04103e-08
-1.11385e-06
-1.22868e-08
-1.10641e-06
-1.40355e-08
-1.09422e-06
-1.94706e-08
-1.08224e-06
-2.10163e-08
-1.07601e-06
-1.49245e-08
-1.06939e-06
-1.97674e-08
-1.06596e-06
-1.67033e-08
-1.06448e-06
-9.62645e-09
-1.07304e-06
-3.52885e-09
-1.08016e-06
-1.13898e-09
-1.075e-06
-8.04833e-09
-1.06593e-06
-2.81754e-09
-1.05238e-06
-7.38452e-09
-1.044e-06
-1.23863e-08
-1.03171e-06
-1.71261e-08
-1.02233e-06
-1.64543e-08
-1.00651e-06
-2.45717e-08
-9.9513e-07
-1.94343e-08
-9.84818e-07
-2.04062e-08
-9.78404e-07
-1.59347e-08
-9.72043e-07
-1.99655e-08
-9.64931e-07
-2.08402e-08
-9.57933e-07
-1.71626e-08
-9.17582e-07
-5.32936e-08
-8.8232e-07
-4.73392e-08
-8.81488e-07
-8.79379e-09
-8.79834e-07
-3.98903e-08
-9.42253e-07
2.89336e-08
-1.01364e-06
6.95644e-08
-1.26976e-06
2.26333e-07
-1.51337e-06
2.85139e-07
-1.67481e-06
2.23671e-07
-1.73845e-06
2.90044e-07
-1.72069e-06
2.13721e-07
-1.72524e-06
1.55044e-07
-1.74268e-06
1.19103e-07
-1.76427e-06
9.06007e-08
-1.78557e-06
6.97504e-08
-1.80473e-06
5.40373e-08
-1.82107e-06
4.20637e-08
-1.8344e-06
3.25938e-08
-1.84489e-06
2.49751e-08
-1.85288e-06
1.88408e-08
-1.85868e-06
1.38e-08
-1.86256e-06
9.51761e-09
-1.86484e-06
5.9017e-09
-1.86571e-06
2.81942e-09
-1.86542e-06
2.39702e-10
-1.864e-06
-2.14755e-09
-1.8614e-06
-4.20935e-09
-1.85783e-06
-6.12552e-09
-1.85341e-06
-7.88661e-09
-1.84824e-06
-9.4556e-09
-1.84244e-06
-1.08067e-08
-1.83612e-06
-1.19553e-08
-1.82933e-06
-1.29447e-08
-1.82212e-06
-1.38355e-08
-1.81448e-06
-1.46912e-08
-1.80652e-06
-1.54903e-08
-1.79814e-06
-1.63383e-08
-1.78929e-06
-1.72146e-08
-1.78003e-06
-1.80456e-08
-1.7704e-06
-1.8867e-08
-1.7604e-06
-1.97e-08
-1.75004e-06
-2.05355e-08
-1.73935e-06
-2.13513e-08
-1.72835e-06
-2.21218e-08
-1.71708e-06
-2.28216e-08
-1.70554e-06
-2.34455e-08
-1.69374e-06
-2.39691e-08
-1.68162e-06
-2.44385e-08
-1.66932e-06
-2.47711e-08
-1.65695e-06
-2.4981e-08
-1.64448e-06
-2.51425e-08
-1.63195e-06
-2.52099e-08
-1.6194e-06
-2.51803e-08
-1.60687e-06
-2.50948e-08
-1.59432e-06
-2.50204e-08
-1.58172e-06
-2.5018e-08
-1.56903e-06
-2.51149e-08
-1.55625e-06
-2.52989e-08
-1.54337e-06
-2.55474e-08
-1.53039e-06
-2.58539e-08
-1.51727e-06
-2.62199e-08
-1.504e-06
-2.65991e-08
-1.49061e-06
-2.68558e-08
-1.47723e-06
-2.68319e-08
-1.46395e-06
-2.65165e-08
-1.45078e-06
-2.61603e-08
-1.43759e-06
-2.61153e-08
-1.42427e-06
-2.64733e-08
-1.41093e-06
-2.68776e-08
-1.39776e-06
-2.68083e-08
-1.38486e-06
-2.61242e-08
-1.37238e-06
-2.5154e-08
-1.3595e-06
-2.50934e-08
-1.34621e-06
-2.57772e-08
-1.33294e-06
-2.63537e-08
-1.32007e-06
-2.6048e-08
-1.3076e-06
-2.51452e-08
-1.2948e-06
-2.49907e-08
-1.28135e-06
-2.60349e-08
-1.26797e-06
-2.68292e-08
-1.25503e-06
-2.65608e-08
-1.24223e-06
-2.60065e-08
-1.22878e-06
-2.66431e-08
-1.21542e-06
-2.73245e-08
-1.20254e-06
-2.70347e-08
-1.18998e-06
-2.59965e-08
-1.1772e-06
-2.56295e-08
-1.16441e-06
-2.58561e-08
-1.15109e-06
-2.60828e-08
-1.13717e-06
-2.67114e-08
-2.05116e-08
-0.000133605
-5.308e-06
-0.000133012
-1.74608e-06
-0.000132406
-1.80022e-06
-0.000131775
-1.93197e-06
-0.000131093
-2.13164e-06
-0.00013032
-2.40993e-06
-0.000129512
-2.46344e-06
-0.000128639
-2.59872e-06
-0.00012774
-2.68122e-06
-0.000126855
-2.68948e-06
-0.000125978
-2.74896e-06
-0.000125117
-2.72651e-06
-0.000124252
-2.792e-06
-0.000123374
-2.80128e-06
-0.000122471
-2.82194e-06
-0.000121542
-2.82358e-06
-0.000120624
-2.82737e-06
-0.000119681
-2.81186e-06
-0.000118711
-2.83625e-06
-0.00011775
-2.92364e-06
-0.000116812
-3.0635e-06
-0.00011589
-3.16447e-06
-0.000114956
-3.1702e-06
-0.000113911
-3.06787e-06
-0.000112757
-2.99616e-06
-0.000111538
-3.05458e-06
-0.000110396
-3.25248e-06
-0.000109327
-3.48026e-06
-0.000108284
-3.48405e-06
-0.000107164
-3.32669e-06
-0.000106044
-3.32027e-06
-0.000104899
-3.52575e-06
-0.000103649
-3.85086e-06
-0.000102219
-3.95492e-06
-0.000100784
-3.62064e-06
-9.95134e-05
-3.31804e-06
-9.84581e-05
-3.16585e-06
-9.74458e-05
-3.36532e-06
-9.63125e-05
-3.83909e-06
-9.48799e-05
-4.15107e-06
-9.32874e-05
-4.08084e-06
-9.17984e-05
-3.92618e-06
-9.04389e-05
-4.0171e-06
-8.91666e-05
-4.33159e-06
-8.78728e-05
-4.50465e-06
-8.64218e-05
-4.37451e-06
-8.47952e-05
-4.11267e-06
-8.31362e-05
-4.00878e-06
-8.15698e-05
-4.18574e-06
-8.00996e-05
-4.51017e-06
-7.87265e-05
-4.71863e-06
-7.73936e-05
-4.73524e-06
-7.59064e-05
-4.67956e-06
-7.43251e-05
-4.43449e-06
-7.2743e-05
-4.21807e-06
-7.12883e-05
-4.29069e-06
-6.99077e-05
-4.63514e-06
-6.84942e-05
-4.86841e-06
-6.70024e-05
-4.69847e-06
-6.54081e-05
-4.56889e-06
-6.37621e-05