/*--------------------------------*- C++ -*----------------------------------*\
| =========                 |                                                 |
| \\      /  F ield         | OpenFOAM: The Open Source CFD Toolbox           |
|  \\    /   O peration     | Version:  v2006                                 |
|   \\  /    A nd           | Website:  www.openfoam.com                      |
|    \\/     M anipulation  |                                                 |
\*---------------------------------------------------------------------------*/
FoamFile
{
    version     2.0;
    format      ascii;
    class       surfaceScalarField;
    location    "4.4";
    object      alphaPhi0.water;
}
// * * * * * * * * * * * * * * * * * * * * * * * * * * * * * * * * * * * * * //

dimensions      [0 3 -1 0 0 0 0];
oriented        oriented;


internalField   nonuniform List<scalar> 
65390
(
8.21549e-05
4.57712e-07
8.66307e-05
-4.475e-06
0.000104718
-1.80871e-05
0.00012762
-2.29017e-05
0.000144532
-1.69114e-05
0.000145686
-1.17034e-06
0.000133732
1.19561e-05
0.000118665
1.5065e-05
0.000105864
1.28076e-05
9.70269e-05
8.8348e-06
9.07462e-05
6.2734e-06
8.60845e-05
4.66021e-06
8.24947e-05
3.5973e-06
7.96971e-05
2.80268e-06
7.73793e-05
2.31748e-06
7.51309e-05
2.23588e-06
7.27129e-05
2.40622e-06
7.04079e-05
2.31421e-06
6.85143e-05
1.90612e-06
6.6992e-05
1.5255e-06
6.56497e-05
1.34238e-06
6.42154e-05
1.43421e-06
6.25514e-05
1.66269e-06
6.06827e-05
1.85262e-06
5.86074e-05
2.07527e-06
5.66619e-05
1.9452e-06
5.50479e-05
1.61897e-06
5.37053e-05
1.34558e-06
5.22704e-05
1.42824e-06
5.04979e-05
1.77044e-06
4.85693e-05
1.9313e-06
4.70457e-05
1.5313e-06
4.58865e-05
1.15914e-06
4.47067e-05
1.17978e-06
4.30506e-05
1.64178e-06
4.09167e-05
2.13385e-06
3.88143e-05
2.1055e-06
3.73248e-05
1.49798e-06
3.62612e-05
1.06568e-06
3.52208e-05
1.03815e-06
3.37414e-05
1.46871e-06
3.18748e-05
1.8667e-06
3.00612e-05
1.82108e-06
2.85071e-05
1.55632e-06
2.72362e-05
1.27093e-06
2.60934e-05
1.14277e-06
2.48133e-05
1.2773e-06
2.33591e-05
1.45379e-06
2.19046e-05
1.45637e-06
2.06343e-05
1.27097e-06
1.94226e-05
1.21179e-06
1.8008e-05
1.41425e-06
1.63007e-05
1.70102e-06
1.44192e-05
1.87942e-06
1.26482e-05
1.77092e-06
1.1288e-05
1.36594e-06
1.01553e-05
1.13256e-06
8.91087e-06
1.24445e-06
7.47456e-06
1.43629e-06
6.20828e-06
1.26668e-06
5.41728e-06
7.91113e-07
5.16063e-06
2.56549e-07
5.27265e-06
-1.12173e-07
5.43947e-06
-1.68711e-07
5.61196e-06
-1.7242e-07
6.03082e-06
-4.18794e-07
6.97694e-06
-9.46043e-07
8.63274e-06
-1.6546e-06
1.09668e-05
-2.33193e-06
1.38309e-05
-2.8641e-06
1.6986e-05
-3.15503e-06
2.02004e-05
-3.21445e-06
2.30066e-05
-2.80614e-06
2.47729e-05
-1.7663e-06
2.47835e-05
-1.21601e-08
2.19633e-05
2.81398e-06
1.66043e-05
5.35905e-06
8.66998e-06
7.9358e-06
3.61641e-06
5.05472e-06
2.60168e-06
1.01471e-06
1.18086e-06
1.42079e-06
1.40607e-06
-2.25245e-07
7.55857e-07
6.50105e-07
8.71889e-07
-1.16371e-07
6.29654e-07
2.42248e-07
3.71638e-08
5.92504e-07
-3.22703e-07
3.59785e-07
-6.38005e-07
3.15245e-07
-6.76407e-07
3.83907e-08
-6.02724e-07
-7.36871e-08
-2.2893e-07
-3.73775e-07
4.59404e-07
-6.88364e-07
1.47944e-06
-1.01999e-06
3.04831e-06
-1.56883e-06
5.25551e-06
-2.2072e-06
7.80758e-06
-2.55216e-06
1.07718e-05
-2.9644e-06
1.36383e-05
-2.86748e-06
1.56206e-05
-1.98299e-06
1.62511e-05
-6.30455e-07
1.59161e-05
3.35023e-07
1.50828e-05
8.33258e-07
1.40514e-05
1.03298e-06
1.31415e-05
9.10481e-07
1.21059e-05
1.03556e-06
1.12809e-05
8.24833e-07
1.07186e-05
5.62218e-07
1.00948e-05
6.23723e-07
9.33851e-06
7.54316e-07
8.6034e-06
7.35088e-07
7.90199e-06
7.03626e-07
7.22091e-06
6.80977e-07
6.67177e-06
5.49151e-07
6.27177e-06
3.99799e-07
6.11601e-06
1.55326e-07
6.12752e-06
-1.15202e-08
6.27199e-06
-1.44167e-07
6.11404e-06
1.58283e-07
5.52207e-06
5.91971e-07
4.78623e-06
7.35833e-07
3.98948e-06
7.96755e-07
3.24806e-06
7.40867e-07
2.36487e-06
8.83182e-07
1.57151e-06
7.93548e-07
8.81055e-07
6.90413e-07
1.84059e-07
6.96984e-07
-4.84652e-07
6.68667e-07
-1.14649e-06
6.61694e-07
-1.80823e-06
6.61715e-07
-2.4367e-06
6.28462e-07
-3.04398e-06
6.0732e-07
-3.64102e-06
5.97267e-07
-4.21276e-06
5.71303e-07
-4.77482e-06
5.62037e-07
-5.32802e-06
5.53163e-07
-5.87443e-06
5.46381e-07
-6.40908e-06
5.34632e-07
-6.93173e-06
5.22419e-07
-7.44269e-06
5.11405e-07
-7.93805e-06
4.95124e-07
-8.419e-06
4.80921e-07
-8.88487e-06
4.65841e-07
-9.34189e-06
4.56993e-07
-9.7858e-06
4.44851e-07
-1.02164e-05
4.29446e-07
-1.06264e-05
4.09926e-07
-1.10251e-05
3.98628e-07
-1.14149e-05
3.89805e-07
-1.1794e-05
3.79918e-07
-1.21608e-05
3.66441e-07
-1.25093e-05
3.47591e-07
-1.28418e-05
3.32518e-07
-1.31648e-05
3.22968e-07
-1.34785e-05
3.13695e-07
-1.37819e-05
3.03828e-07
-1.40728e-05
2.90483e-07
-1.43475e-05
2.74706e-07
-1.46098e-05
2.62347e-07
-1.48633e-05
2.53919e-07
-1.51088e-05
2.44521e-07
-1.53383e-05
2.29531e-07
-1.55537e-05
2.1533e-07
-1.57579e-05
2.0463e-07
-1.59536e-05
1.96104e-07
-1.61385e-05
1.84102e-07
-1.63063e-05
1.67792e-07
-1.64606e-05
1.54341e-07
-1.66054e-05
1.45253e-07
-1.67419e-05
1.36575e-07
-1.68652e-05
1.22772e-07
-1.69713e-05
1.06009e-07
-1.7064e-05
9.28024e-08
-1.71469e-05
8.31439e-08
-1.72205e-05
7.42378e-08
-1.72834e-05
6.27578e-08
-1.73315e-05
4.75844e-08
-1.73641e-05
3.25072e-08
-1.73855e-05
2.14927e-08
-1.73972e-05
1.22444e-08
-1.73971e-05
6.10945e-10
-1.73859e-05
-1.12099e-08
-1.73619e-05
-2.47825e-08
-1.7325e-05
-3.67084e-08
-1.72796e-05
-4.49058e-08
-1.7225e-05
-5.42581e-08
-1.71571e-05
-6.88162e-08
-1.70722e-05
-8.51807e-08
-1.69749e-05
-9.59004e-08
-1.68712e-05
-1.0365e-07
-1.67568e-05
-1.14373e-07
-1.66325e-05
-1.25704e-07
-1.64945e-05
-1.37983e-07
-1.63447e-05
-1.49801e-07
-1.61845e-05
-1.60214e-07
-1.60111e-05
-1.72786e-07
-1.58246e-05
-1.85767e-07
-1.56278e-05
-1.95963e-07
-1.54239e-05
-2.0587e-07
-1.52064e-05
-2.17589e-07
-1.49755e-05
-2.30784e-07
-1.47287e-05
-2.46847e-07
-1.44686e-05
-2.601e-07
-1.41993e-05
-2.68671e-07
-1.39222e-05
-2.76309e-07
-1.36347e-05
-2.87455e-07
-1.3334e-05
-3.0138e-07
-1.30174e-05
-3.17007e-07
-1.26861e-05
-3.3134e-07
-1.23454e-05
-3.40631e-07
-1.19975e-05
-3.47612e-07
-1.16397e-05
-3.57813e-07
-1.12678e-05
-3.7186e-07
-1.08834e-05
-3.84428e-07
-1.04933e-05
-3.89841e-07
-1.01007e-05
-3.92334e-07
-9.6987e-06
-4.02491e-07
-9.28589e-06
-4.12935e-07
-8.86359e-06
-4.2229e-07
-8.43259e-06
-4.30974e-07
-8.00069e-06
-4.3142e-07
-7.57433e-06
-4.26034e-07
-7.14724e-06
-4.27512e-07
-6.71463e-06
-4.32977e-07
-6.27516e-06
-4.39473e-07
-5.83241e-06
-4.42772e-07
-5.39382e-06
-4.3849e-07
-4.96548e-06
-4.28216e-07
-4.54196e-06
-4.23572e-07
-4.11992e-06
-4.22173e-07
-3.70225e-06
-4.1766e-07
-3.28901e-06
-4.1325e-07
-2.87952e-06
-4.09477e-07
-2.4823e-06
-3.97094e-07
-2.09887e-06
-3.83503e-07
-1.72228e-06
-3.76625e-07
-1.35378e-06
-3.68488e-07
-9.94739e-07
-3.59044e-07
-6.44771e-07
-3.49919e-07
-3.07198e-07
-3.3757e-07
1.71788e-08
-3.24374e-07
3.31375e-07
-3.14182e-07
6.36459e-07
-3.05092e-07
9.29966e-07
-2.93499e-07
1.21073e-06
-2.80768e-07
1.48246e-06
-2.71679e-07
1.74681e-06
-2.64329e-07
2.00497e-06
-2.58142e-07
2.25196e-06
-2.47081e-07
2.48708e-06
-2.35041e-07
2.71475e-06
-2.2757e-07
2.93717e-06
-2.22419e-07
3.15196e-06
-2.14819e-07
3.3576e-06
-2.05639e-07
3.55581e-06
-1.9819e-07
3.74738e-06
-1.91597e-07
3.93024e-06
-1.82871e-07
4.10668e-06
-1.76375e-07
4.27691e-06
-1.70161e-07
4.44048e-06
-1.63575e-07
4.59803e-06
-1.57547e-07
4.74802e-06
-1.50037e-07
4.89118e-06
-1.43173e-07
5.02923e-06
-1.37983e-07
5.16242e-06
-1.33156e-07
5.29034e-06
-1.2791e-07
5.41129e-06
-1.20959e-07
5.52501e-06
-1.13707e-07
5.63201e-06
-1.07054e-07
5.73446e-06
-1.02351e-07
5.83377e-06
-9.92332e-08
5.92895e-06
-9.51789e-08
6.0189e-06
-8.99746e-08
6.10233e-06
-8.34942e-08
6.17957e-06
-7.71894e-08
6.25255e-06
-7.28585e-08
6.32182e-06
-6.92763e-08
6.3873e-06
-6.54753e-08
6.44797e-06
-6.06815e-08
6.50425e-06
-5.62381e-08
6.55727e-06
-5.3072e-08
6.60689e-06
-4.9635e-08
6.65116e-06
-4.42844e-08
6.69084e-06
-3.96361e-08
6.72757e-06
-3.66475e-08
6.76166e-06
-3.40986e-08
6.79329e-06
-3.16191e-08
6.82181e-06
-2.85424e-08
6.84692e-06
-2.51437e-08
6.86811e-06
-2.12595e-08
6.88635e-06
-1.80008e-08
6.90206e-06
-1.56174e-08
6.91588e-06
-1.37451e-08
6.92795e-06
-1.20571e-08
6.9375e-06
-9.50451e-09
6.9436e-06
-6.13649e-09
6.94752e-06
-3.81257e-09
6.94967e-06
-2.04585e-09
6.94988e-06
-2.1087e-10
6.94861e-06
1.26322e-09
6.94546e-06
3.15822e-09
6.94001e-06
5.43125e-09
6.9329e-06
7.15633e-09
6.92432e-06
8.55505e-09
6.91466e-06
9.65276e-09
6.9034e-06
1.1258e-08
6.89027e-06
1.31303e-08
6.87575e-06
1.45354e-08
6.86063e-06
1.51385e-08
6.84446e-06
1.61733e-08
6.82652e-06
1.79458e-08
6.80708e-06
1.94464e-08
6.78648e-06
2.06736e-08
6.76513e-06
2.14041e-08
6.74296e-06
2.21972e-08
6.71951e-06
2.34798e-08
6.6947e-06
2.48694e-08
6.66891e-06
2.58284e-08
6.64246e-06
2.64949e-08
6.61495e-06
2.75055e-08
6.58616e-06
2.88132e-08
6.55608e-06
3.00855e-08
6.52524e-06
3.08603e-08
6.49386e-06
3.1386e-08
6.46127e-06
3.25878e-08
6.42726e-06
3.39889e-08
6.39227e-06
3.49828e-08
6.35677e-06
3.55112e-08
6.32047e-06
3.62909e-08
6.28289e-06
3.75639e-08
6.24407e-06
3.87972e-08
6.20415e-06
3.99033e-08
6.16339e-06
4.07629e-08
6.12194e-06
4.14414e-08
6.07969e-06
4.22434e-08
6.03652e-06
4.31518e-08
5.9924e-06
4.41173e-08
5.94722e-06
4.51811e-08
5.90104e-06
4.61725e-08
5.85411e-06
4.69344e-08
5.80657e-06
4.75443e-08
5.75812e-06
4.844e-08
5.70855e-06
4.95569e-08
5.65796e-06
5.05689e-08
5.60658e-06
5.14086e-08
5.55458e-06
5.19967e-08
5.50212e-06
5.24602e-08
5.44884e-06
5.32799e-08
5.39461e-06
5.42251e-08
5.33952e-06
5.50909e-08
5.28398e-06
5.55476e-08
5.22811e-06
5.58746e-08
5.17145e-06
5.66558e-08
5.11398e-06
5.74567e-08
5.05592e-06
5.80695e-08
4.99752e-06
5.84058e-08
4.93879e-06
5.87271e-08
4.87935e-06
5.9429e-08
4.81937e-06
5.99856e-08
4.7591e-06
6.02708e-08
4.69863e-06
6.04698e-08
4.63774e-06
6.08867e-08
4.57642e-06
6.1325e-08
4.51479e-06
6.16245e-08
4.45289e-06
6.18998e-08
4.39094e-06
6.19508e-08
4.32887e-06
6.20754e-08
4.26651e-06
6.23527e-08
4.20394e-06
6.25762e-08
4.1412e-06
6.27342e-08
4.0784e-06
6.28092e-08
4.01573e-06
6.26713e-08
3.95315e-06
6.25779e-08
3.89054e-06
6.26121e-08
3.82792e-06
6.26136e-08
3.76547e-06
6.2455e-08
3.70318e-06
6.22922e-08
3.64091e-06
6.22614e-08
3.57871e-06
6.22062e-08
3.51659e-06
6.2116e-08
3.4547e-06
6.18913e-08
3.3932e-06
6.15037e-08
3.33202e-06
6.11769e-08
3.27105e-06
6.09719e-08
3.21025e-06
6.0798e-08
3.14963e-06
6.06265e-08
3.08931e-06
6.03164e-08
3.02934e-06
5.99747e-08
2.96979e-06
5.95443e-08
2.91068e-06
5.91179e-08
2.85173e-06
5.89482e-08
2.79315e-06
5.85875e-08
2.73522e-06
5.79319e-08
2.67784e-06
5.73739e-08
2.62057e-06
5.72664e-08
2.56381e-06
5.67695e-08
2.50762e-06
5.61849e-08
2.45175e-06
5.58674e-08
2.39629e-06
5.54645e-08
2.34137e-06
5.49212e-08
2.28709e-06
5.42806e-08
2.23337e-06
5.3725e-08
2.18026e-06
5.31065e-08
2.12755e-06
5.27089e-08
2.07534e-06
5.22132e-08
2.02352e-06
5.18209e-08
1.97232e-06
5.12076e-08
1.92152e-06
5.08024e-08
1.87157e-06
4.9943e-08
1.82198e-06
4.95951e-08
1.77291e-06
4.90732e-08
1.72432e-06
4.85824e-08
1.67637e-06
4.7954e-08
1.62925e-06
4.71237e-08
1.58239e-06
4.68621e-08
1.53649e-06
4.58978e-08
1.49121e-06
4.52751e-08
1.44661e-06
4.46016e-08
1.40339e-06
4.32213e-08
1.36111e-06
4.22811e-08
1.31753e-06
4.35756e-08
1.27586e-06
4.16692e-08
1.23397e-06
4.18936e-08
1.1922e-06
4.17644e-08
1.15929e-06
3.29086e-08
1.12635e-06
3.29421e-08
1.08329e-06
4.306e-08
1.04935e-06
3.39413e-08
1.00009e-06
4.92596e-08
9.38383e-07
6.17019e-08
8.47808e-07
9.05747e-08
7.5591e-07
9.18971e-08
6.92177e-07
6.37326e-08
6.31947e-07
6.02287e-08
5.8211e-07
4.98365e-08
5.35265e-07
4.68443e-08
4.92053e-07
4.32116e-08
4.49467e-07
4.25855e-08
4.08966e-07
4.05013e-08
3.6985e-07
3.91152e-08
3.3326e-07
3.65905e-08
2.97016e-07
3.62437e-08
2.69382e-07
2.76331e-08
2.41714e-07
2.76686e-08
2.04934e-07
3.67795e-08
1.76073e-07
2.886e-08
1.35696e-07
4.03769e-08
8.39751e-08
5.17202e-08
1.20277e-08
7.19467e-08
-5.8256e-08
7.02827e-08
-1.06685e-07
4.84278e-08
-1.53071e-07
4.63847e-08
-1.91164e-07
3.80921e-08
-2.27125e-07
3.59591e-08
-2.60138e-07
3.30116e-08
-2.91158e-07
3.10188e-08
-3.18864e-07
2.77039e-08
-3.44513e-07
2.56476e-08
-3.66706e-07
2.21915e-08
-3.904e-07
2.36926e-08
-4.11705e-07
2.13029e-08
-4.3472e-07
2.3013e-08
-4.55473e-07
2.07516e-08
-4.63411e-07
7.93605e-09
-4.64318e-07
9.04442e-10
-4.83241e-07
1.89222e-08
-4.97301e-07
1.40618e-08
-5.61821e-07
6.45288e-08
-6.61389e-07
9.9577e-08
-8.35661e-07
1.74287e-07
-9.99508e-07
1.63899e-07
-1.12337e-06
1.23916e-07
-1.22563e-06
1.02318e-07
-1.30442e-06
7.88316e-08
-1.37147e-06
6.70949e-08
-1.43e-06
5.85625e-08
-1.48274e-06
5.27753e-08
-1.53129e-06
4.85851e-08
-1.57673e-06
4.54691e-08
-1.6198e-06
4.30943e-08
-1.66099e-06
4.12123e-08
-1.70056e-06
3.95815e-08
-1.73869e-06
3.81466e-08
-1.77561e-06
3.69364e-08
-1.81155e-06
3.59565e-08
-1.84666e-06
3.51147e-08
-1.88094e-06
3.42941e-08
-1.91438e-06
3.34493e-08
-1.94697e-06
3.25969e-08
-1.97876e-06
3.17928e-08
-2.00982e-06
3.10669e-08
-2.04025e-06
3.04342e-08
-2.07008e-06
2.98299e-08
-2.09932e-06
2.92495e-08
-2.12798e-06
2.86591e-08
-2.15586e-06
2.78849e-08
-2.18316e-06
2.73014e-08
-2.20985e-06
2.67003e-08
-2.23586e-06
2.60076e-08
-2.26115e-06
2.52946e-08
-2.28568e-06
2.45333e-08
-2.30939e-06
2.37174e-08
-2.33229e-06
2.29038e-08
-2.35443e-06
2.21384e-08
-2.37588e-06
2.14498e-08
-2.39671e-06
2.08327e-08
-2.41706e-06
2.03474e-08
-2.43711e-06
2.00509e-08
-2.45667e-06
1.95626e-08
-2.47589e-06
1.9218e-08
-2.49486e-06
1.89667e-08
-2.51362e-06
1.87625e-08
-2.53224e-06
1.86164e-08
-2.55075e-06
1.85071e-08
-2.56912e-06
1.83772e-08
-2.5873e-06
1.81797e-08
-2.60522e-06
1.79095e-08
-2.62275e-06
1.75343e-08
-2.63984e-06
1.70913e-08
-2.65644e-06
1.65928e-08
-2.67252e-06
1.60822e-08
-2.68814e-06
1.56173e-08
-2.70344e-06
1.53018e-08
-2.71866e-06
1.52165e-08
-2.73397e-06
1.53076e-08
-2.74931e-06
1.53387e-08
-2.7644e-06
1.50907e-08
-2.77892e-06
1.45116e-08
-2.79285e-06
1.39344e-08
-2.80672e-06
1.3872e-08
-2.82103e-06
1.43036e-08
-2.83586e-06
1.48333e-08
-2.85083e-06
1.49683e-08
-2.86506e-06
1.42273e-08
-2.87855e-06
1.34925e-08
-2.89208e-06
1.35281e-08
-2.90617e-06
1.40859e-08
-2.92047e-06
1.42952e-08
-2.93382e-06
1.33533e-08
-2.94622e-06
1.2399e-08
-2.95864e-06
1.24157e-08
-2.97144e-06
1.28018e-08
-2.98383e-06
1.23906e-08
-2.99532e-06
1.14894e-08
-3.00693e-06
1.16012e-08
-3.01958e-06
1.26556e-08
-3.03279e-06
1.32053e-08
-3.04599e-06
1.31969e-08
-3.05996e-06
1.39729e-08
-3.07573e-06
1.57681e-08
2.07732e-08
8.34055e-05
-2.94739e-07
9.30016e-05
-1.4072e-05
0.000105091
-3.01772e-05
0.000111544
-2.93552e-05
0.00011031
-1.5679e-05
0.000105577
3.55811e-06
0.000102059
1.54737e-05
9.89819e-05
1.81449e-05
9.53104e-05
1.64804e-05
9.11563e-05
1.29889e-05
8.72665e-05
1.01617e-05
8.3859e-05
8.06846e-06
8.09012e-05
6.55666e-06
7.83084e-05
5.39594e-06
7.60084e-05
4.61705e-06
7.38941e-05
4.33436e-06
7.19045e-05
4.38353e-06
7.00641e-05
4.15352e-06
6.83412e-05
3.65301e-06
6.66427e-05
3.22814e-06
6.49306e-05
3.05413e-06
6.32479e-05
3.11352e-06
6.16026e-05
3.26555e-06
6.00901e-05
3.36328e-06
5.85152e-05
3.65018e-06
5.67527e-05
3.73406e-06
5.48404e-05
3.54117e-06
5.30584e-05
3.11944e-06
5.15148e-05
2.95472e-06
5.01833e-05
3.10121e-06
4.87638e-05
3.36233e-06
4.72107e-05
3.09729e-06
4.56595e-05
2.71024e-06
4.41651e-05
2.6616e-06
4.26719e-05
3.11786e-06
4.10876e-05
3.71816e-06
3.94465e-05
3.76115e-06
3.78849e-05
3.07372e-06
3.64809e-05
2.47043e-06
3.51415e-05
2.37397e-06
3.37087e-05
2.88971e-06
3.21039e-05
3.47154e-06
3.03306e-05
3.59831e-06
2.8626e-05
3.26861e-06
2.71177e-05
2.77972e-06
2.57209e-05
2.53869e-06
2.43465e-05
2.64491e-06
2.28821e-05
2.91751e-06
2.13922e-05
2.94854e-06
2.0056e-05
2.60715e-06
1.87425e-05
2.51715e-06
1.72554e-05
2.89833e-06
1.56586e-05
3.29788e-06
1.41491e-05
3.38894e-06
1.27862e-05
3.1389e-06
1.14855e-05
2.66938e-06
1.00726e-05
2.54507e-06
8.48104e-06
2.83082e-06
6.86144e-06
3.05597e-06
5.46711e-06
2.66213e-06
4.41168e-06
1.8476e-06
3.56691e-06
1.10123e-06
2.72537e-06
7.28655e-07
1.69474e-06
8.61749e-07
5.97479e-07
9.24883e-07
-3.68216e-07
5.46973e-07
-1.12239e-06
-1.92134e-07
-1.61897e-06
-1.15823e-06
-1.86786e-06
-2.083e-06
-1.79559e-06
-2.9361e-06
-1.3348e-06
-3.61555e-06
-4.89961e-07
-4.05905e-06
8.47097e-07
-4.14328e-06
2.74372e-06
-3.6636e-06
5.24924e-06
-2.51941e-06
8.56829e-06
-5.04969e-07
1.20454e-05
1.88197e-06
1.54581e-05
4.52607e-06
1.52386e-05
5.27748e-06
1.20503e-05
4.20286e-06
6.77004e-06
6.70102e-06
2.58889e-06
3.95544e-06
1.86003e-06
1.37822e-06
4.64422e-08
1.69717e-06
-6.05528e-08
3.49197e-07
-6.182e-07
1.15003e-06
-8.3077e-07
5.72218e-07
-7.33188e-07
2.17611e-07
-6.52685e-07
-4.21562e-08
-1.10949e-06
3.8313e-07
-1.23271e-06
-2.50359e-07
-1.44377e-06
-4.77557e-07
-1.49177e-06
-9.72232e-07
-1.45338e-06
-1.60722e-06
-1.31944e-06
-2.34115e-06
-1.00235e-06
-2.86924e-06
-3.2651e-07
-3.64022e-06
8.74265e-07
-4.06849e-06
2.79972e-06
-3.90868e-06
5.63222e-06
-3.46349e-06
8.58737e-06
-2.61995e-06
1.09829e-05
-1.56175e-06
1.2321e-05
-3.04902e-07
1.26714e-05
5.60029e-07
1.25155e-05
1.19146e-06
1.19317e-05
1.40783e-06
1.11611e-05
1.33024e-06
1.01976e-05
1.58721e-06
9.1954e-06
1.75654e-06
8.39566e-06
1.53485e-06
7.82901e-06
1.2726e-06
7.21112e-06
1.2989e-06
6.57359e-06
1.18666e-06
5.8779e-06
1.09499e-06
5.11192e-06
9.21028e-07
4.41904e-06
6.81361e-07
3.809e-06
4.66283e-07
3.52157e-06
4.45713e-07
3.54734e-06
5.65959e-07
3.71752e-06
5.64834e-07
3.5814e-06
9.32884e-07
3.03009e-06
1.29217e-06
2.43765e-06
1.47564e-06
1.78127e-06
1.45026e-06
1.08816e-06
1.38351e-06
2.49757e-07
1.53538e-06
-5.13986e-07
1.43221e-06
-1.16081e-06
1.30845e-06
-1.78979e-06
1.29051e-06
-2.38282e-06
1.22138e-06
-2.98558e-06
1.2101e-06
-3.59745e-06
1.20908e-06
-4.18756e-06
1.16094e-06
-4.75731e-06
1.13174e-06
-5.31714e-06
1.11294e-06
-5.86027e-06
1.08946e-06
-6.38819e-06
1.06304e-06
-6.90935e-06
1.04357e-06
-7.42207e-06
1.02413e-06
-7.91938e-06
9.92243e-07
-8.4052e-06
9.65896e-07
-8.87779e-06
9.39001e-07
-9.33602e-06
9.15359e-07
-9.77951e-06
8.88414e-07
-1.02077e-05
8.56195e-07
-1.06223e-05
8.24493e-07
-1.1027e-05
8.0374e-07
-1.14187e-05
7.82867e-07
-1.17972e-05
7.58349e-07
-1.21587e-05
7.27646e-07
-1.25083e-05
6.94804e-07
-1.28453e-05
6.69456e-07
-1.31729e-05
6.50599e-07
-1.34883e-05
6.30683e-07
-1.37908e-05
6.06344e-07
-1.40771e-05
5.76787e-07
-1.43538e-05
5.49695e-07
-1.46191e-05
5.27698e-07
-1.4874e-05
5.09507e-07
-1.51187e-05
4.88539e-07
-1.53503e-05
4.60418e-07
-1.55679e-05
4.32911e-07
-1.57728e-05
4.10489e-07
-1.59675e-05
3.91575e-07
-1.61526e-05
3.67583e-07
-1.63218e-05
3.36912e-07
-1.64774e-05
3.10069e-07
-1.66217e-05
2.91325e-07
-1.67568e-05
2.71711e-07
-1.68804e-05
2.44592e-07
-1.69881e-05
2.13417e-07
-1.7082e-05
1.87062e-07
-1.7164e-05
1.67056e-07
-1.72368e-05
1.47079e-07
-1.7297e-05
1.22968e-07
-1.73464e-05
9.51284e-08
-1.73806e-05
6.66765e-08
-1.74019e-05
4.46125e-08
-1.74139e-05
2.42634e-08
-1.74117e-05
-1.57742e-09
-1.73973e-05
-2.56234e-08
-1.73738e-05
-4.95975e-08
-1.73388e-05
-7.10124e-08
-1.72929e-05
-8.99184e-08
-1.72355e-05
-1.11623e-07
-1.71666e-05
-1.39331e-07
-1.70832e-05
-1.69123e-07
-1.6986e-05
-1.91372e-07
-1.68795e-05
-2.10123e-07
-1.67618e-05
-2.32012e-07
-1.66345e-05
-2.53088e-07
-1.64982e-05
-2.75117e-07
-1.63495e-05
-2.98079e-07
-1.61879e-05
-3.20521e-07
-1.60149e-05
-3.47352e-07
-1.58264e-05
-3.73892e-07
-1.5626e-05
-3.95468e-07
-1.54169e-05
-4.14928e-07
-1.51983e-05
-4.36146e-07
-1.49688e-05
-4.61814e-07
-1.47225e-05
-4.93164e-07
-1.44631e-05
-5.19035e-07
-1.41934e-05
-5.37301e-07
-1.39144e-05
-5.55329e-07
-1.36225e-05
-5.7928e-07
-1.33167e-05
-6.07155e-07
-1.30002e-05
-6.347e-07
-1.26718e-05
-6.59665e-07
-1.23336e-05
-6.78377e-07
-1.1985e-05
-6.95968e-07
-1.16242e-05
-7.18417e-07
-1.12519e-05
-7.44859e-07
-1.08703e-05
-7.65992e-07
-1.04824e-05
-7.77496e-07
-1.00871e-05
-7.87402e-07
-9.68299e-06
-8.06329e-07
-9.27066e-06
-8.25588e-07
-8.85109e-06
-8.42479e-07
-8.42519e-06
-8.56877e-07
-7.99551e-06
-8.60804e-07
-7.56565e-06
-8.55619e-07
-7.13547e-06
-8.5765e-07
-6.70268e-06
-8.65795e-07
-6.26653e-06
-8.76325e-07
-5.82997e-06
-8.79307e-07
-5.39552e-06
-8.72827e-07
-4.96476e-06
-8.58843e-07
-4.53853e-06
-8.49752e-07
-4.11757e-06
-8.4317e-07
-3.70115e-06
-8.34009e-07
-3.29089e-06
-8.23887e-07
-2.88644e-06
-8.14026e-07
-2.48967e-06
-7.93725e-07
-2.10363e-06
-7.69468e-07
-1.72757e-06
-7.52704e-07
-1.36019e-06
-7.35782e-07
-1.00143e-06
-7.17924e-07
-6.51874e-07
-6.99526e-07
-3.13066e-07
-6.76389e-07
1.35373e-08
-6.50977e-07
3.27323e-07
-6.27959e-07
6.30038e-07
-6.07768e-07
9.23646e-07
-5.87073e-07
1.2077e-06
-5.64822e-07
1.48289e-06
-5.46866e-07
1.74835e-06
-5.2974e-07
2.00523e-06
-5.14992e-07
2.25322e-06
-4.95132e-07
2.49119e-06
-4.72972e-07
2.71956e-06
-4.55907e-07
2.94159e-06
-4.44338e-07
3.15662e-06
-4.29903e-07
3.36302e-06
-4.12049e-07
3.56087e-06
-3.9604e-07
3.75169e-06
-3.82418e-07
3.93627e-06
-3.67454e-07
4.1146e-06
-3.54703e-07
4.28582e-06
-3.41379e-07
4.44975e-06
-3.27411e-07
4.60573e-06
-3.13443e-07
4.75453e-06
-2.98893e-07
4.89884e-06
-2.87501e-07
5.03828e-06
-2.77418e-07
5.17174e-06
-2.66516e-07
5.29892e-06
-2.55076e-07
5.41914e-06
-2.41259e-07
5.53291e-06
-2.27503e-07
5.64112e-06
-2.15245e-07
5.74446e-06
-2.05671e-07
5.84391e-06
-1.98452e-07
5.93818e-06
-1.89367e-07
6.02686e-06
-1.78638e-07
6.10998e-06
-1.66829e-07
6.1884e-06
-1.55551e-07
6.26216e-06
-1.46593e-07
6.33136e-06
-1.38303e-07
6.39565e-06
-1.29691e-07
6.45585e-06
-1.2092e-07
6.51237e-06
-1.12772e-07
6.56521e-06
-1.05849e-07
6.6142e-06
-9.85889e-08
6.65842e-06
-8.86743e-08
6.69846e-06
-7.96546e-08
6.73535e-06
-7.35137e-08
6.76967e-06
-6.82278e-08
6.80082e-06
-6.26335e-08
6.82834e-06
-5.60785e-08
6.85271e-06
-4.94846e-08
6.87407e-06
-4.26294e-08
6.89261e-06
-3.64811e-08
6.90866e-06
-3.15936e-08
6.92234e-06
-2.72527e-08
6.93347e-06
-2.30313e-08
6.94199e-06
-1.80407e-08
6.94817e-06
-1.23297e-08
6.95255e-06
-8.17095e-09
6.95488e-06
-4.34655e-09
6.95483e-06
-8.67774e-11
6.95263e-06
3.51106e-09
6.94891e-06
6.75625e-09
6.94393e-06
1.04442e-08
6.93721e-06
1.38655e-08
6.92859e-06
1.72072e-08
6.91822e-06
2.00711e-08
6.90658e-06
2.28489e-08
6.8939e-06
2.58304e-08
6.87971e-06
2.87401e-08
6.86427e-06
3.06986e-08
6.84747e-06
3.29891e-08
6.82933e-06
3.6115e-08
6.81014e-06
3.86774e-08
6.78982e-06
4.10544e-08
6.76825e-06
4.3101e-08
6.74562e-06
4.48587e-08
6.72211e-06
4.70501e-08
6.69754e-06
4.94802e-08
6.67186e-06
5.15568e-08
6.64508e-06
5.3365e-08
6.61721e-06
5.53714e-08
6.58843e-06
5.75992e-08
6.55873e-06
5.97915e-08
6.52809e-06
6.15288e-08
6.49637e-06
6.31229e-08
6.4634e-06
6.55296e-08
6.4295e-06
6.78465e-08
6.39483e-06
6.96643e-08
6.35924e-06
7.10892e-08
6.32262e-06
7.28868e-08
6.28487e-06
7.52657e-08
6.2461e-06
7.7533e-08
6.20647e-06
7.95277e-08
6.16595e-06
8.12857e-08
6.12445e-06
8.29319e-08
6.08203e-06
8.4656e-08
6.03868e-06
8.64787e-08
5.99448e-06
8.83004e-08
5.94932e-06
9.03197e-08
5.90324e-06
9.22541e-08
5.85625e-06
9.3926e-08
5.80837e-06
9.54259e-08
5.75966e-06
9.71379e-08
5.71009e-06
9.9102e-08
5.65961e-06
1.01044e-07
5.60835e-06
1.02664e-07
5.55641e-06
1.03951e-07
5.5037e-06
1.0517e-07
5.45017e-06
1.06797e-07
5.39591e-06
1.08484e-07
5.34099e-06
1.10014e-07
5.28543e-06
1.11117e-07
5.22922e-06
1.12088e-07
5.17233e-06
1.1354e-07
5.11487e-06
1.14901e-07
5.05689e-06
1.16055e-07
4.99835e-06
1.16946e-07
4.93934e-06
1.17745e-07
4.87988e-06
1.18883e-07
4.82004e-06
1.19816e-07
4.75976e-06
1.20559e-07
4.69896e-06
1.2127e-07
4.63774e-06
1.22107e-07
4.57639e-06
1.22669e-07
4.51486e-06
1.23148e-07
4.45299e-06
1.2378e-07
4.39089e-06
1.24045e-07
4.32856e-06
1.24412e-07
4.26604e-06
1.24868e-07
4.20349e-06
1.25126e-07
4.14083e-06
1.25387e-07
4.07807e-06
1.25569e-07
4.01533e-06
1.25427e-07
3.9526e-06
1.25305e-07
3.88993e-06
1.25281e-07
3.82724e-06
1.25303e-07
3.7646e-06
1.25095e-07
3.70205e-06
1.24843e-07
3.63965e-06
1.24662e-07
3.57749e-06
1.24361e-07
3.51549e-06
1.24118e-07
3.45361e-06
1.23775e-07
3.39193e-06
1.23181e-07
3.33053e-06
1.22578e-07
3.2694e-06
1.22104e-07
3.20849e-06
1.21712e-07
3.14777e-06
1.21343e-07
3.08749e-06
1.206e-07
3.02755e-06
1.19912e-07
2.96794e-06
1.19165e-07
2.90868e-06
1.18371e-07
2.84983e-06
1.17797e-07
2.79139e-06
1.17033e-07
2.73336e-06
1.15968e-07
2.67567e-06
1.15066e-07
2.61836e-06
1.1457e-07
2.56159e-06
1.13548e-07
2.50532e-06
1.12448e-07
2.44951e-06
1.11686e-07
2.39421e-06
1.1076e-07
2.33929e-06
1.0984e-07
2.28498e-06
1.08601e-07
2.23112e-06
1.07583e-07
2.1779e-06
1.06334e-07
2.1251e-06
1.05506e-07
2.07296e-06
1.04353e-07
2.02123e-06
1.03551e-07
1.97024e-06
1.02205e-07
1.91958e-06
1.01462e-07
1.86973e-06
9.9796e-08
1.82022e-06
9.90981e-08
1.77098e-06
9.83188e-08
1.72234e-06
9.72236e-08
1.67397e-06
9.63175e-08
1.62681e-06
9.42935e-08
1.58007e-06
9.35997e-08
1.53504e-06
9.09244e-08
1.49047e-06
8.98406e-08
1.44464e-06
9.04354e-08
1.39975e-06
8.81053e-08
1.35479e-06
8.724e-08
1.31151e-06
8.68629e-08
1.27698e-06
7.619e-08
1.24236e-06
7.65179e-08
1.19756e-06
8.65569e-08
1.15343e-06
7.70423e-08
1.09365e-06
9.27206e-08
1.02777e-06
1.0894e-07
9.34228e-07
1.27479e-07
8.45218e-07
1.38268e-07
7.83065e-07
1.23854e-07
7.33523e-07
1.40116e-07
6.97544e-07
1.27875e-07
6.5247e-07
1.08805e-07
6.10927e-07
1.01771e-07
5.65631e-07
9.51305e-08
5.22858e-07
8.96173e-08
4.78861e-07
8.7208e-08
4.37963e-07
8.34824e-08
3.98895e-07
7.95693e-08
3.68392e-07
6.96176e-08
3.37857e-07
6.71249e-08
2.96628e-07
7.7472e-08
2.56575e-07
6.76863e-08
2.05392e-07
7.8851e-08
1.50045e-07
9.2126e-08
7.38995e-08
1.05005e-07
3.8481e-09
1.10428e-07
-4.35182e-08
9.90855e-08
-8.00899e-08
1.08517e-07
-1.08471e-07
9.86623e-08
-1.44457e-07
8.44122e-08
-1.7671e-07
7.86361e-08
-2.09909e-07
7.12899e-08
-2.39022e-07
6.50714e-08
-2.67735e-07
6.17233e-08
-2.95356e-07
5.86391e-08
-3.23485e-07
5.58311e-08
-3.5058e-07
5.27427e-08
-3.80211e-07
5.18225e-08
-4.04374e-07
4.78571e-08
-4.15465e-07
3.2395e-08
-4.19338e-07
2.68883e-08
-4.41387e-07
4.27999e-08
-4.70882e-07
3.74275e-08
-5.51213e-07
8.1231e-08
-6.65008e-07
1.32705e-07
-8.37845e-07
1.86883e-07
-1.00645e-06
2.33098e-07
-1.12176e-06
2.14829e-07
-1.21505e-06
2.67527e-07
-1.25726e-06
2.06029e-07
-1.29543e-06
1.62023e-07
-1.33805e-06
1.44867e-07
-1.3845e-06
1.25214e-07
-1.43086e-06
1.13391e-07
-1.47682e-06
1.04468e-07
-1.52196e-06
9.7866e-08
-1.56586e-06
9.24298e-08
-1.6083e-06
8.78671e-08
-1.64934e-06
8.40979e-08
-1.68905e-06
8.08799e-08
-1.72743e-06
7.79358e-08
-1.7646e-06
7.52867e-08
-1.8007e-06
7.30123e-08
-1.83581e-06
7.10412e-08
-1.86994e-06
6.92198e-08
-1.90311e-06
6.7445e-08
-1.93534e-06
6.56518e-08
-1.9668e-06
6.40432e-08
-1.99755e-06
6.25277e-08
-2.02769e-06
6.11816e-08
-2.05726e-06
5.99895e-08
-2.08631e-06
5.88617e-08
-2.1148e-06
5.77331e-08
-2.1427e-06
5.65364e-08
-2.1702e-06
5.53759e-08
-2.19703e-06
5.41107e-08
-2.22312e-06
5.27819e-08
-2.24864e-06
5.15133e-08
-2.27358e-06
5.02266e-08
-2.29792e-06
4.88578e-08
-2.32161e-06
4.73969e-08
-2.34469e-06
4.59731e-08
-2.3672e-06
4.46495e-08
-2.3892e-06
4.34405e-08
-2.41066e-06
4.22832e-08
-2.43153e-06
4.12063e-08
-2.45167e-06
4.01883e-08
-2.47161e-06
3.94945e-08
-2.4912e-06
3.88058e-08
-2.51044e-06
3.82025e-08
-2.5294e-06
3.77191e-08
-2.54812e-06
3.73385e-08
-2.56661e-06
3.6991e-08
-2.58483e-06
3.65941e-08
-2.60274e-06
3.60855e-08
-2.62029e-06
3.54544e-08
-2.63748e-06
3.4725e-08
-2.65432e-06
3.39249e-08
-2.67079e-06
3.30587e-08
-2.68685e-06
3.21442e-08
-2.70253e-06
3.12932e-08
-2.7179e-06
3.06635e-08
-2.7331e-06
3.04136e-08
-2.74824e-06
3.0443e-08
-2.76327e-06
3.03727e-08
-2.77804e-06
2.9852e-08
-2.79248e-06
2.89472e-08
-2.80678e-06
2.82289e-08
-2.82112e-06
2.82117e-08
-2.83578e-06
2.89632e-08
-2.85048e-06
2.95272e-08
-2.8644e-06
2.88837e-08
-2.87781e-06
2.76374e-08
-2.89131e-06
2.69911e-08
-2.90524e-06
2.74533e-08
-2.91924e-06
2.80865e-08
-2.9325e-06
2.75507e-08
-2.9451e-06
2.59436e-08
-2.95792e-06
2.52195e-08
-2.97113e-06
2.56201e-08
-2.98408e-06
2.57493e-08
-2.99632e-06
2.46325e-08
-3.00883e-06
2.39924e-08
-3.02196e-06
2.47302e-08
-3.03511e-06
2.58101e-08
-3.04798e-06
2.60691e-08
-3.06047e-06
2.56912e-08
-3.07218e-06
2.56843e-08
-3.08391e-06
2.74991e-08
3.33735e-08
8.24246e-05
1.73943e-08
8.50552e-05
-1.67016e-05
8.30475e-05
-2.81681e-05
7.77988e-05
-2.41056e-05
6.8705e-05
-6.58504e-06
6.62364e-05
6.02658e-06
6.95074e-05
1.22036e-05
7.37965e-05
1.38571e-05
7.72182e-05
1.30597e-05
7.86499e-05
1.15574e-05
7.86886e-05
1.01229e-05
7.79106e-05
8.8465e-06
7.66683e-05
7.79896e-06
7.51418e-05
6.92221e-06
7.34782e-05
6.28044e-06
7.18483e-05
5.959e-06
7.03575e-05
5.86269e-06
6.89648e-05
5.55255e-06
6.7465e-05
5.14826e-06
6.5754e-05
4.93088e-06
6.39342e-05
4.87523e-06
6.22305e-05
4.81892e-06
6.0807e-05
4.69442e-06
5.9548e-05
4.61477e-06
5.82972e-05
4.88105e-06
5.66775e-05
5.35595e-06
5.46872e-05
5.52923e-06
5.27802e-05
5.05321e-06
5.12513e-05
4.48672e-06
5.00372e-05
4.30353e-06
4.88785e-05
4.52624e-06
4.73542e-05
4.62999e-06
4.55921e-05
4.47774e-06
4.39635e-05
4.28642e-06
4.26324e-05
4.43367e-06
4.14376e-05
4.91118e-06
4.01246e-05
5.08594e-06
3.85381e-05
4.67057e-06
3.6818e-05
4.19136e-06
3.51719e-05
4.0163e-06
3.36502e-05
4.39699e-06
3.21773e-05
4.94452e-06
3.05479e-05
5.22766e-06
2.88208e-05
5.00557e-06
2.71007e-05
4.50511e-06
2.54142e-05
4.22347e-06
2.38473e-05
4.20531e-06
2.24316e-05
4.33258e-06
2.1044e-05
4.33899e-06
1.9602e-05
4.04996e-06
1.81579e-05
3.95324e-06
1.67981e-05
4.25816e-06
1.54753e-05
4.6207e-06
1.42556e-05
4.60876e-06
1.30817e-05
4.31837e-06
1.16591e-05
4.09471e-06
1.00182e-05
4.17981e-06
8.35191e-06
4.49719e-06
6.84918e-06
4.55864e-06
5.58979e-06
3.92531e-06
4.40124e-06
3.03687e-06
3.15136e-06
2.351e-06
1.79846e-06
2.08124e-06
4.53105e-07
2.2071e-06
-7.44675e-07
2.1227e-06
-1.84899e-06
1.65119e-06
-3.13606e-06
1.09432e-06
-4.73472e-06
4.40408e-07
-6.39924e-06
-4.18389e-07
-7.9105e-06
-1.42447e-06
-9.22365e-06
-2.30285e-06
-1.03615e-05
-2.92198e-06
-1.12767e-05
-3.2277e-06
-1.1912e-05
-3.02535e-06
-1.18842e-05
-2.54364e-06
-1.0483e-05
-1.90616e-06
-7.47755e-06
-1.1235e-06
-2.65903e-06
-2.9437e-07
2.21636e-06
4.02007e-07
5.48292e-06
9.36333e-07
9.12842e-06
3.0554e-06
9.73355e-06
3.35033e-06
8.38993e-06
2.72172e-06
4.40994e-06
5.67639e-06
1.11205e-06
3.64711e-06
7.80772e-07
1.4814e-06
-9.90503e-07
2.3435e-06
-1.47006e-06
6.9714e-07
-1.83522e-06
3.22981e-07
-1.863e-06
4.11027e-07
-1.80036e-06
-3.12843e-07