/*--------------------------------*- C++ -*----------------------------------*\
| =========                 |                                                 |
| \\      /  F ield         | OpenFOAM: The Open Source CFD Toolbox           |
|  \\    /   O peration     | Version:  v2006                                 |
|   \\  /    A nd           | Website:  www.openfoam.com                      |
|    \\/     M anipulation  |                                                 |
\*---------------------------------------------------------------------------*/
FoamFile
{
    version     2.0;
    format      ascii;
    class       volScalarField;
    location    "4.4";
    object      k;
}
// * * * * * * * * * * * * * * * * * * * * * * * * * * * * * * * * * * * * * //

dimensions      [0 2 -2 0 0 0 0];


internalField   nonuniform List<scalar> 
33000
(
1.09139e-08
1.23871e-08
1.43848e-08
1.77006e-08
2.33639e-08
3.22724e-08
4.53625e-08
6.23996e-08
7.9947e-08
9.38926e-08
1.02825e-07
1.07816e-07
1.10464e-07
1.11939e-07
1.12892e-07
1.13624e-07
1.14236e-07
1.14726e-07
1.1509e-07
1.15382e-07
1.1569e-07
1.16077e-07
1.16551e-07
1.17079e-07
1.17596e-07
1.18035e-07
1.18375e-07
1.18651e-07
1.18917e-07
1.19194e-07
1.19427e-07
1.19565e-07
1.19647e-07
1.19727e-07
1.19797e-07
1.1976e-07
1.19514e-07
1.19071e-07
1.18612e-07
1.18223e-07
1.17923e-07
1.17605e-07
1.1717e-07
1.16611e-07
1.1598e-07
1.15352e-07
1.1478e-07
1.14253e-07
1.13778e-07
1.13349e-07
1.1297e-07
1.12618e-07
1.12202e-07
1.11571e-07
1.10591e-07
1.09202e-07
1.07466e-07
1.05381e-07
1.02852e-07
9.97573e-08
9.61314e-08
9.21075e-08
8.77168e-08
8.37079e-08
8.01534e-08
7.64609e-08
7.26365e-08
6.89949e-08
6.58578e-08
6.33572e-08
6.16631e-08
6.0854e-08
6.11506e-08
6.27745e-08
6.64494e-08
7.11302e-08
7.50822e-08
7.86969e-08
8.05447e-08
8.30776e-08
8.53724e-08
8.3281e-08
8.24453e-08
8.10182e-08
8.04383e-08
8.00716e-08
8.00794e-08
7.97712e-08
7.85643e-08
7.62421e-08
7.32167e-08
6.93971e-08
6.54606e-08
6.13409e-08
5.74479e-08
5.44947e-08
5.20696e-08
5.10898e-08
5.17504e-08
5.60177e-08
6.07692e-08
6.12754e-08
5.96209e-08
5.86435e-08
5.83574e-08
5.81948e-08
5.79862e-08
5.74987e-08
5.70013e-08
5.62933e-08
5.553e-08
5.46512e-08
5.3429e-08
5.17852e-08
4.99354e-08
4.84893e-08
4.80671e-08
4.95082e-08
5.13256e-08
5.1626e-08
5.1452e-08
5.11958e-08
5.13925e-08
5.17016e-08
5.20458e-08
5.23551e-08
5.26862e-08
5.2971e-08
5.32792e-08
5.35313e-08
5.37342e-08
5.38856e-08
5.39778e-08
5.40122e-08
5.40019e-08
5.39609e-08
5.39189e-08
5.38747e-08
5.38282e-08
5.37776e-08
5.37171e-08
5.36424e-08
5.35597e-08
5.34767e-08
5.33913e-08
5.32965e-08
5.31936e-08
5.3089e-08
5.29871e-08
5.28849e-08
5.27742e-08
5.26523e-08
5.25275e-08
5.24108e-08
5.23032e-08
5.21951e-08
5.20781e-08
5.19554e-08
5.18401e-08
5.17363e-08
5.16343e-08
5.15251e-08
5.14134e-08
5.13105e-08
5.12133e-08
5.11089e-08
5.09949e-08
5.08853e-08
5.07891e-08
5.06949e-08
5.05894e-08
5.04777e-08
5.03773e-08
5.02926e-08
5.021e-08
5.01179e-08
5.00201e-08
4.99311e-08
4.98554e-08
4.97849e-08
4.97121e-08
4.96348e-08
4.95621e-08
4.95048e-08
4.94559e-08
4.9394e-08
4.93157e-08
4.92486e-08
4.9203e-08
4.91576e-08
4.91018e-08
4.90421e-08
4.89812e-08
4.89209e-08
4.88562e-08
4.87826e-08
4.87118e-08
4.86454e-08
4.85702e-08
4.84818e-08
4.83833e-08
4.8292e-08
4.8219e-08
4.81526e-08
4.80742e-08
4.79834e-08
4.78872e-08
4.77968e-08
4.77233e-08
4.76565e-08
4.75784e-08
4.74889e-08
4.74029e-08
4.73308e-08
4.72603e-08
4.71698e-08
4.70699e-08
4.69671e-08
4.68624e-08
4.67668e-08
4.66688e-08
4.65449e-08
4.64008e-08
4.62452e-08
4.60876e-08
4.5935e-08
4.57818e-08
4.56142e-08
4.54396e-08
4.52856e-08
4.51546e-08
4.50508e-08
4.49809e-08
4.49296e-08
4.48903e-08
4.4871e-08
4.48697e-08
4.4886e-08
4.49197e-08
4.49615e-08
4.50054e-08
4.50414e-08
4.50626e-08
4.50601e-08
4.50327e-08
4.49827e-08
4.49155e-08
4.48377e-08
4.47395e-08
4.46182e-08
4.44805e-08
4.43332e-08
4.41729e-08
4.39969e-08
4.38091e-08
4.36115e-08
4.34009e-08
4.31801e-08
4.29498e-08
4.27109e-08
4.24661e-08
4.22178e-08
4.19666e-08
4.17144e-08
4.14619e-08
4.12099e-08
4.09567e-08
4.07018e-08
4.0444e-08
4.01845e-08
3.99258e-08
3.96677e-08
3.94097e-08
3.91504e-08
3.88893e-08
3.86274e-08
3.83655e-08
3.81038e-08
3.78418e-08
3.75794e-08
3.7318e-08
3.70575e-08
3.67965e-08
3.65344e-08
3.62725e-08
3.60111e-08
3.57502e-08
3.54895e-08
3.52288e-08
3.49683e-08
3.4708e-08
3.44485e-08
3.41905e-08
3.39339e-08
3.36785e-08
3.34245e-08
3.31723e-08
3.29222e-08
3.26747e-08
3.24294e-08
3.21863e-08
3.19456e-08
3.17077e-08
3.14729e-08
3.12407e-08
3.10114e-08
3.07843e-08
3.05603e-08
3.03394e-08
3.0121e-08
2.99051e-08
2.9691e-08
2.94795e-08
2.92711e-08
2.90664e-08
2.88651e-08
2.86672e-08
2.84729e-08
2.8282e-08
2.80939e-08
2.79083e-08
2.7725e-08
2.75443e-08
2.73659e-08
2.71893e-08
2.70143e-08
2.68405e-08
2.66683e-08
2.64973e-08
2.63271e-08
2.61576e-08
2.59884e-08
2.58195e-08
2.56505e-08
2.54815e-08
2.53122e-08
2.51425e-08
2.49723e-08
2.48016e-08
2.46305e-08
2.44589e-08
2.42865e-08
2.41136e-08
2.394e-08
2.37657e-08
2.35908e-08
2.34151e-08
2.32387e-08
2.30615e-08
2.28835e-08
2.2705e-08
2.25259e-08
2.23462e-08
2.21661e-08
2.19855e-08
2.18048e-08
2.16239e-08
2.14425e-08
2.1261e-08
2.10793e-08
2.08975e-08
2.07157e-08
2.05337e-08
2.03518e-08
2.01702e-08
1.99891e-08
1.98084e-08
1.9628e-08
1.94479e-08
1.92682e-08
1.90889e-08
1.89101e-08
1.8732e-08
1.85545e-08
1.83776e-08
1.82016e-08
1.80265e-08
1.78523e-08
1.76789e-08
1.75064e-08
1.73348e-08
1.71642e-08
1.69946e-08
1.68259e-08
1.66583e-08
1.64917e-08
1.63263e-08
1.61618e-08
1.59986e-08
1.58363e-08
1.5675e-08
1.55149e-08
1.53562e-08
1.51987e-08
1.50429e-08
1.48902e-08
1.47404e-08
1.45935e-08
1.44491e-08
1.43077e-08
1.41688e-08
1.40329e-08
1.38997e-08
1.37693e-08
1.36417e-08
1.3517e-08
1.33951e-08
1.32762e-08
1.316e-08
1.30467e-08
1.2936e-08
1.28282e-08
1.27225e-08
1.26196e-08
1.25194e-08
1.24205e-08
1.23239e-08
1.22294e-08
1.21334e-08
1.20434e-08
1.19594e-08
1.18695e-08
1.17908e-08
1.17058e-08
1.15894e-08
1.15137e-08
1.14701e-08
1.13601e-08
1.13883e-08
1.1384e-08
1.16161e-08
1.1563e-08
1.16388e-08
1.16079e-08
1.16221e-08
1.159e-08
1.15829e-08
1.15549e-08
1.15401e-08
1.15094e-08
1.14871e-08
1.14574e-08
1.1394e-08
1.13683e-08
1.13604e-08
1.12975e-08
1.1356e-08
1.13748e-08
1.15667e-08
1.15649e-08
1.16241e-08
1.16255e-08
1.16365e-08
1.16304e-08
1.16299e-08
1.16124e-08
1.15978e-08
1.15501e-08
1.1524e-08
1.15107e-08
1.14533e-08
1.14592e-08
1.1393e-08
1.1152e-08
1.11294e-08
1.11969e-08
1.10024e-08
1.17399e-08
1.21553e-08
1.45275e-08
1.48467e-08
1.57931e-08
1.62132e-08
1.66078e-08
1.68948e-08
1.71212e-08
1.72905e-08
1.7415e-08
1.75117e-08
1.75884e-08
1.76497e-08
1.76984e-08
1.77355e-08
1.77616e-08
1.7781e-08
1.77947e-08
1.78032e-08
1.78068e-08
1.78061e-08
1.78016e-08
1.77938e-08
1.77831e-08
1.777e-08
1.77545e-08
1.77367e-08
1.77165e-08
1.7694e-08
1.76691e-08
1.76417e-08
1.76116e-08
1.75788e-08
1.75431e-08
1.75046e-08
1.74636e-08
1.74205e-08
1.73758e-08
1.73299e-08
1.72831e-08
1.72355e-08
1.71874e-08
1.7139e-08
1.70906e-08
1.70421e-08
1.69936e-08
1.69449e-08
1.68958e-08
1.6846e-08
1.67952e-08
1.67435e-08
1.66906e-08
1.66366e-08
1.65817e-08
1.65264e-08
1.64711e-08
1.64159e-08
1.63606e-08
1.63045e-08
1.62475e-08
1.61902e-08
1.61335e-08
1.60781e-08
1.60239e-08
1.59694e-08
1.59139e-08
1.58579e-08
1.58028e-08
1.57487e-08
1.56943e-08
1.56382e-08
1.55813e-08
1.55246e-08
1.54684e-08
1.54115e-08
1.53539e-08
1.52972e-08
1.52426e-08
1.51718e-08
1.50705e-08
1.5042e-08
1.33165e-08
1.02769e-08
1.07268e-08
1.16507e-08
1.41333e-08
1.9463e-08
2.87703e-08
4.02206e-08
5.00911e-08
5.53135e-08
5.55529e-08
5.2856e-08
4.91342e-08
4.54343e-08
4.21551e-08
3.98331e-08
3.8817e-08
3.85924e-08
3.79381e-08
3.6363e-08
3.45625e-08
3.34695e-08
3.34794e-08
3.41743e-08
3.496e-08
3.558e-08
3.53597e-08
3.41697e-08
3.27138e-08
3.217e-08
3.2609e-08
3.28052e-08
3.1506e-08
2.98754e-08
2.95824e-08
3.09868e-08
3.25833e-08
3.23486e-08
2.97824e-08
2.71137e-08
2.6245e-08
2.74075e-08
2.87993e-08
2.87693e-08
2.73983e-08
2.55286e-08
2.42822e-08
2.41387e-08
2.43936e-08
2.42237e-08
2.34233e-08
2.298e-08
2.36451e-08
2.4807e-08
2.53464e-08
2.47484e-08
2.32432e-08
2.22535e-08
2.24538e-08
2.3005e-08
2.26339e-08
2.15006e-08
2.05592e-08
2.07919e-08
2.19355e-08
2.33718e-08
2.49074e-08
2.63465e-08
2.73521e-08
2.74953e-08
2.72046e-08
2.68885e-08
2.66884e-08
2.66712e-08
2.69022e-08
2.74815e-08
3.00664e-08
3.35115e-08
3.60409e-08
3.29781e-08
2.89291e-08
2.79166e-08
2.29866e-08
1.95954e-08
1.64624e-08
1.48101e-08
1.32171e-08
1.25348e-08
1.25147e-08
1.22911e-08
1.25835e-08
1.31612e-08
1.38331e-08
1.44987e-08
1.50196e-08
1.52601e-08
1.5231e-08
1.48536e-08
1.43045e-08
1.37789e-08
1.3438e-08
1.37692e-08
1.49266e-08
1.5272e-08
1.48528e-08
1.50141e-08
1.34612e-08
1.22523e-08
1.23041e-08
1.26619e-08
1.25529e-08
1.23942e-08
1.23592e-08
1.21344e-08
1.20137e-08
1.19156e-08
1.18309e-08
1.16244e-08
1.1485e-08
1.2057e-08
1.25385e-08
1.27117e-08
1.26186e-08
1.29572e-08
1.25369e-08
1.21314e-08
1.21463e-08
1.2061e-08
1.20375e-08
1.20256e-08
1.19178e-08
1.18489e-08
1.18185e-08
1.17589e-08
1.17294e-08
1.17093e-08
1.16918e-08
1.16618e-08
1.16308e-08
1.16016e-08
1.15629e-08
1.15261e-08
1.14835e-08
1.14498e-08
1.14175e-08
1.13765e-08
1.13287e-08
1.129e-08
1.12624e-08
1.1237e-08
1.12048e-08
1.11627e-08
1.11203e-08
1.10898e-08
1.1068e-08
1.10478e-08
1.1022e-08
1.09907e-08
1.09635e-08
1.09465e-08
1.09321e-08
1.09112e-08
1.08872e-08
1.08704e-08
1.08601e-08
1.0848e-08
1.08294e-08
1.08128e-08
1.0804e-08
1.07987e-08
1.07885e-08
1.07737e-08
1.07632e-08
1.07596e-08
1.07586e-08
1.07549e-08
1.07487e-08
1.0744e-08
1.07434e-08
1.07456e-08
1.07487e-08
1.07513e-08
1.07527e-08
1.07542e-08
1.07564e-08
1.07576e-08
1.07562e-08
1.07544e-08
1.07554e-08
1.07584e-08
1.076e-08
1.07591e-08
1.07577e-08
1.07569e-08
1.07555e-08
1.07531e-08
1.07504e-08
1.07487e-08
1.07468e-08
1.07421e-08
1.07353e-08
1.073e-08
1.07285e-08
1.07286e-08
1.07255e-08
1.07179e-08
1.07088e-08
1.07024e-08
1.07006e-08
1.06993e-08
1.06943e-08
1.0687e-08
1.06818e-08
1.06788e-08
1.06753e-08
1.06694e-08
1.06607e-08
1.06538e-08
1.06506e-08
1.06498e-08
1.06492e-08
1.06444e-08
1.06349e-08
1.06264e-08
1.06224e-08
1.06217e-08
1.06204e-08
1.06176e-08
1.06134e-08
1.06071e-08
1.06007e-08
1.05981e-08
1.05983e-08
1.0598e-08
1.05952e-08
1.05894e-08
1.05844e-08
1.05839e-08
1.05865e-08
1.05883e-08
1.05882e-08
1.05873e-08
1.05871e-08
1.05871e-08
1.05878e-08
1.05889e-08
1.05885e-08
1.05911e-08
1.05966e-08
1.05986e-08
1.0597e-08
1.0597e-08
1.05995e-08
1.06026e-08
1.06036e-08
1.06045e-08
1.06063e-08
1.06067e-08
1.06058e-08
1.06057e-08
1.06066e-08
1.06063e-08
1.06031e-08
1.05994e-08
1.05977e-08
1.05977e-08
1.05976e-08
1.05963e-08
1.05919e-08
1.05843e-08
1.05776e-08
1.05739e-08
1.05724e-08
1.05712e-08
1.05677e-08
1.0562e-08
1.05553e-08
1.05493e-08
1.05446e-08
1.05399e-08
1.05335e-08
1.05284e-08
1.05266e-08
1.05223e-08
1.05148e-08
1.05065e-08
1.04995e-08
1.04944e-08
1.04908e-08
1.04868e-08
1.04812e-08
1.04741e-08
1.04659e-08
1.04596e-08
1.04557e-08
1.04514e-08
1.04456e-08
1.04395e-08
1.04333e-08
1.04272e-08
1.04217e-08
1.04164e-08
1.04106e-08
1.04041e-08
1.03979e-08
1.03923e-08
1.03866e-08
1.03801e-08
1.03724e-08
1.03668e-08
1.03616e-08
1.03557e-08
1.0349e-08
1.03421e-08
1.03355e-08
1.03294e-08
1.03234e-08
1.03168e-08
1.03101e-08
1.03041e-08
1.02982e-08
1.02922e-08
1.02854e-08
1.02786e-08
1.02734e-08
1.02679e-08
1.02615e-08
1.02546e-08
1.02488e-08
1.02437e-08
1.02384e-08
1.02328e-08
1.0227e-08
1.02211e-08
1.02155e-08
1.02101e-08
1.0205e-08
1.02001e-08
1.01953e-08
1.01902e-08
1.01852e-08
1.01807e-08
1.01767e-08
1.01726e-08
1.01684e-08
1.01639e-08
1.01595e-08
1.01558e-08
1.01523e-08
1.01489e-08
1.0145e-08
1.01412e-08
1.01383e-08
1.01352e-08
1.01321e-08
1.01288e-08
1.01257e-08
1.0123e-08
1.01203e-08
1.01174e-08
1.01146e-08
1.01121e-08
1.01095e-08
1.01069e-08
1.01045e-08
1.01019e-08
1.00994e-08
1.00972e-08
1.00949e-08
1.00927e-08
1.00904e-08
1.0088e-08
1.00857e-08
1.00836e-08
1.00815e-08
1.00793e-08
1.00771e-08
1.00751e-08
1.0073e-08
1.00711e-08
1.00691e-08
1.00669e-08
1.00649e-08
1.00629e-08
1.00611e-08
1.00592e-08
1.00573e-08
1.00554e-08
1.00535e-08
1.00516e-08
1.00499e-08
1.00481e-08
1.00462e-08
1.00444e-08
1.00427e-08
1.0041e-08
1.00392e-08
1.00376e-08
1.00359e-08
1.00343e-08
1.00326e-08
1.0031e-08
1.00294e-08
1.00279e-08
1.00263e-08
1.0025e-08
1.00234e-08
1.00221e-08
1.00204e-08
1.00191e-08
1.00179e-08
1.00165e-08
1.00153e-08
1.00137e-08
1.00126e-08
1.0011e-08
1.00095e-08
1.00091e-08
1.00074e-08
1.00075e-08
1.00066e-08
1.00057e-08
1.00043e-08
1.00158e-08
1.0012e-08
1.00196e-08
1.00276e-08
1.00669e-08
1.00646e-08
1.00297e-08
1.00251e-08
1.00311e-08
1.00244e-08
1.00088e-08
1.00064e-08
1.00001e-08
9.99686e-09
9.99465e-09
9.99331e-09
9.99157e-09
9.99153e-09
1.00004e-08
9.99752e-09
1.0001e-08
1.00045e-08
1.0022e-08
1.00201e-08
1.00042e-08
1.00029e-08
1.00038e-08
1.00004e-08
9.98962e-09
9.99008e-09
9.98727e-09
9.98672e-09
9.98259e-09
9.98623e-09
9.98107e-09
9.98293e-09
9.98889e-09
1.0017e-08
1.00178e-08
1.00626e-08
1.0068e-08
1.01192e-08
1.01299e-08
1.0164e-08
1.02084e-08
1.02006e-08
1.01977e-08
1.02596e-08
1.02006e-08
1.01408e-08
1.01073e-08
1.00813e-08
1.00633e-08
1.00497e-08
1.0039e-08
1.00303e-08
1.00234e-08
1.00178e-08
1.00133e-08
1.00095e-08
1.00063e-08
1.00037e-08
1.00016e-08
9.99977e-09
9.99825e-09
9.99691e-09
9.99573e-09
9.99469e-09
9.9938e-09
9.993e-09
9.99231e-09
9.99172e-09
9.99117e-09
9.99077e-09
9.99046e-09
9.99017e-09
9.98991e-09
9.98967e-09
9.98942e-09
9.98916e-09
9.98892e-09
9.98871e-09
9.98853e-09
9.98838e-09
9.98824e-09
9.988e-09
9.98772e-09
9.98742e-09
9.98706e-09
9.98669e-09
9.98634e-09
9.98603e-09
9.98576e-09
9.98552e-09
9.98528e-09
9.98505e-09
9.98485e-09
9.98467e-09
9.98448e-09
9.98421e-09
9.98386e-09
9.98348e-09
9.98318e-09
9.98298e-09
9.98273e-09
9.98224e-09
9.9816e-09
9.98105e-09
9.9808e-09
9.98099e-09
9.98105e-09
9.98052e-09
9.97979e-09
9.97948e-09
9.97981e-09
9.98008e-09
9.97956e-09
9.97902e-09
9.97914e-09
9.97939e-09
9.97869e-09
9.97782e-09
9.97857e-09
9.98456e-09
1.0009e-08
1.00399e-08
1.00713e-08
1.00237e-08
1.01181e-08
1.03671e-08
1.12035e-08
1.40571e-08
1.99257e-08
2.67311e-08
3.20927e-08
3.41747e-08
3.30721e-08
3.01636e-08
2.69325e-08
2.40816e-08
2.18103e-08
2.01155e-08
1.90248e-08
1.85056e-08
1.82882e-08
1.79219e-08
1.72808e-08
1.66162e-08
1.62105e-08
1.61395e-08
1.62641e-08
1.64265e-08
1.65966e-08
1.65742e-08
1.62363e-08
1.56987e-08
1.53157e-08
1.52154e-08
1.51861e-08
1.48577e-08
1.44293e-08
1.42787e-08
1.45574e-08
1.49521e-08
1.48784e-08
1.41741e-08
1.3433e-08
1.31258e-08
1.33334e-08
1.36852e-08
1.37188e-08
1.33667e-08
1.28604e-08
1.25112e-08
1.24103e-08
1.24413e-08
1.2395e-08
1.22087e-08
1.21224e-08
1.22892e-08
1.25515e-08
1.26552e-08
1.25355e-08
1.23084e-08
1.22469e-08
1.24194e-08
1.26348e-08
1.26499e-08
1.25311e-08
1.2497e-08
1.26704e-08
1.30352e-08
1.3406e-08
1.36615e-08
1.3865e-08
1.40263e-08
1.40457e-08
1.39668e-08
1.3849e-08
1.37284e-08
1.36237e-08
1.35504e-08
1.35012e-08
1.34813e-08
1.37247e-08
1.43338e-08
1.43209e-08
1.39186e-08
1.43485e-08
1.33654e-08
1.27846e-08
1.24969e-08
1.19605e-08
1.1387e-08
1.0902e-08
1.05044e-08
1.03196e-08
1.02847e-08
1.03329e-08
1.04325e-08
1.05487e-08
1.06666e-08
1.0752e-08
1.07648e-08
1.07066e-08
1.06018e-08
1.04898e-08
1.03955e-08
1.03279e-08
1.0283e-08
1.02596e-08
1.02937e-08
1.03765e-08
1.02941e-08
1.02185e-08
1.02371e-08
1.02636e-08
1.02105e-08
1.01639e-08
1.01649e-08
1.01526e-08
1.01505e-08
1.0147e-08
1.01377e-08
1.01255e-08
1.01146e-08
1.01094e-08
1.01044e-08
1.01329e-08
1.01768e-08
1.02136e-08
1.01892e-08
1.0163e-08
1.01729e-08
1.01533e-08
1.01384e-08
1.01363e-08
1.01269e-08
1.01231e-08
1.01213e-08
1.01156e-08
1.01123e-08
1.01108e-08
1.01093e-08
1.01072e-08
1.01051e-08
1.01031e-08
1.01003e-08
1.00978e-08
1.00952e-08
1.00929e-08
1.00908e-08
1.00881e-08
1.00854e-08
1.00833e-08
1.00818e-08
1.00805e-08
1.00786e-08
1.00764e-08
1.00743e-08
1.00728e-08
1.00719e-08
1.0071e-08
1.00698e-08
1.00684e-08
1.00672e-08
1.00666e-08
1.00661e-08
1.00652e-08
1.00643e-08
1.00636e-08
1.00633e-08
1.00629e-08
1.00622e-08
1.00615e-08
1.00613e-08
1.00611e-08
1.00607e-08
1.006e-08
1.00596e-08
1.00594e-08
1.00594e-08
1.00592e-08
1.00588e-08
1.00584e-08
1.00583e-08
1.00582e-08
1.00582e-08
1.00581e-08
1.0058e-08
1.00579e-08
1.00578e-08
1.00576e-08
1.00572e-08
1.00568e-08
1.00566e-08
1.00566e-08
1.00565e-08
1.00562e-08
1.0056e-08
1.00557e-08
1.00554e-08
1.00549e-08
1.00546e-08
1.00543e-08
1.00541e-08
1.00536e-08
1.00531e-08
1.00526e-08
1.00524e-08
1.00523e-08
1.00521e-08
1.00515e-08
1.00509e-08
1.00505e-08
1.00503e-08
1.00501e-08
1.00497e-08
1.00492e-08
1.00488e-08
1.00486e-08
1.00483e-08
1.00479e-08
1.00473e-08
1.00469e-08
1.00466e-08
1.00465e-08
1.00464e-08
1.00461e-08
1.00455e-08
1.0045e-08
1.00448e-08
1.00447e-08
1.00446e-08
1.00444e-08
1.00442e-08
1.00439e-08
1.00435e-08
1.00434e-08
1.00434e-08
1.00434e-08
1.00433e-08
1.0043e-08
1.00428e-08
1.00427e-08
1.00428e-08
1.0043e-08
1.00431e-08
1.00431e-08
1.00431e-08
1.0043e-08
1.00431e-08
1.00432e-08
1.00432e-08
1.00434e-08
1.00438e-08
1.0044e-08
1.0044e-08
1.0044e-08
1.00441e-08
1.00444e-08
1.00446e-08
1.00447e-08
1.00448e-08
1.00449e-08
1.00449e-08
1.00451e-08
1.00452e-08
1.00452e-08
1.0045e-08
1.00448e-08
1.00448e-08
1.00449e-08
1.0045e-08
1.0045e-08
1.00447e-08
1.00443e-08
1.0044e-08
1.0044e-08
1.0044e-08
1.00439e-08
1.00437e-08
1.00435e-08
1.00432e-08
1.00429e-08
1.00427e-08
1.00424e-08
1.00421e-08
1.0042e-08
1.00419e-08
1.00416e-08
1.00412e-08
1.00408e-08
1.00405e-08
1.00402e-08
1.00401e-08
1.00398e-08
1.00395e-08
1.00391e-08
1.00387e-08
1.00384e-08
1.00382e-08
1.00379e-08
1.00376e-08
1.00374e-08
1.00371e-08
1.00369e-08
1.00366e-08
1.00363e-08
1.00361e-08
1.00358e-08
1.00355e-08
1.00352e-08
1.00349e-08
1.00346e-08
1.00342e-08
1.00339e-08
1.00336e-08
1.00332e-08
1.00329e-08
1.00325e-08
1.00322e-08
1.00318e-08
1.00315e-08
1.00312e-08
1.00308e-08
1.00305e-08
1.00302e-08
1.00298e-08
1.00295e-08
1.00291e-08
1.00289e-08
1.00286e-08
1.00282e-08
1.00279e-08
1.00276e-08
1.00273e-08
1.00271e-08
1.00268e-08
1.00265e-08
1.00263e-08
1.0026e-08
1.00257e-08
1.00255e-08
1.00253e-08
1.00251e-08
1.00248e-08
1.00246e-08
1.00244e-08
1.00242e-08
1.00241e-08
1.00239e-08
1.00237e-08
1.00235e-08
1.00233e-08
1.00232e-08
1.0023e-08
1.00229e-08
1.00227e-08
1.00226e-08
1.00224e-08
1.00223e-08
1.00222e-08
1.0022e-08
1.00219e-08
1.00218e-08
1.00217e-08
1.00215e-08
1.00214e-08
1.00213e-08
1.00212e-08
1.00211e-08
1.0021e-08
1.00209e-08
1.00208e-08
1.00207e-08
1.00206e-08
1.00206e-08
1.00205e-08
1.00204e-08
1.00203e-08
1.00202e-08
1.00201e-08
1.002e-08
1.00199e-08
1.00199e-08
1.00198e-08
1.00197e-08
1.00196e-08
1.00195e-08
1.00194e-08
1.00193e-08
1.00193e-08
1.00192e-08
1.00191e-08
1.0019e-08
1.0019e-08
1.00189e-08
1.00188e-08
1.00187e-08
1.00186e-08
1.00185e-08
1.00185e-08
1.00184e-08
1.00183e-08
1.00182e-08
1.00181e-08
1.00181e-08
1.0018e-08
1.00179e-08
1.00178e-08
1.00177e-08
1.00177e-08
1.00176e-08
1.00174e-08
1.00173e-08
1.00173e-08
1.00172e-08
1.00171e-08
1.00172e-08
1.00171e-08
1.00171e-08
1.00169e-08
1.00173e-08
1.0017e-08
1.00172e-08
1.00174e-08
1.00177e-08
1.00176e-08
1.00175e-08
1.00171e-08
1.00159e-08
1.00162e-08
1.00174e-08
1.0018e-08
1.00181e-08
1.00177e-08
1.00179e-08
1.00178e-08
1.00172e-08
1.00167e-08
1.00163e-08
1.00162e-08
1.00165e-08
1.0016e-08
1.00163e-08
1.00162e-08
1.00161e-08
1.00157e-08
1.00152e-08
1.00153e-08
1.0016e-08
1.00161e-08
1.00161e-08
1.00159e-08
1.0016e-08
1.00159e-08
1.00157e-08
1.00155e-08
1.00152e-08
1.0015e-08
1.00153e-08
1.00148e-08
1.0015e-08
1.00153e-08
1.00156e-08
1.00157e-08
1.00159e-08
1.00185e-08
1.00192e-08
1.00215e-08
1.00219e-08
1.00217e-08
1.00272e-08
1.00303e-08
1.00296e-08
1.00339e-08
1.00296e-08
1.00224e-08
1.00182e-08
1.00161e-08
1.00145e-08
1.00133e-08
1.00125e-08
1.00117e-08
1.00111e-08
1.00106e-08
1.00101e-08
1.00097e-08
1.00093e-08
1.00091e-08
1.0009e-08
1.0009e-08
1.00091e-08
1.00093e-08
1.00095e-08
1.00096e-08
1.00098e-08
1.00099e-08
1.001e-08
1.00102e-08
1.00103e-08
1.00104e-08
1.00106e-08
1.00107e-08
1.00108e-08
1.00109e-08
1.00109e-08
1.00109e-08
1.00109e-08
1.00109e-08
1.0011e-08
1.00111e-08
1.00112e-08
1.00114e-08
1.00115e-08
1.00116e-08
1.00116e-08
1.00116e-08
1.00115e-08
1.00115e-08
1.00115e-08
1.00115e-08
1.00115e-08
1.00115e-08
1.00114e-08
1.00114e-08
1.00115e-08
1.00115e-08
1.00116e-08
1.00116e-08
1.00115e-08
1.00113e-08
1.00112e-08
1.0011e-08
1.00108e-08
1.00108e-08
1.00109e-08
1.0011e-08
1.00111e-08
1.00109e-08
1.00106e-08
1.00107e-08
1.00108e-08
1.0011e-08
1.00108e-08
1.00104e-08
1.00104e-08
1.00105e-08
1.00105e-08
1.00103e-08
1.00103e-08
1.00105e-08
1.00108e-08
1.00123e-08
1.00127e-08
1.00142e-08
1.00093e-08
1.00671e-08
1.02497e-08
1.08321e-08
1.25917e-08
1.54543e-08
1.82203e-08
1.97305e-08
1.96061e-08
1.84144e-08
1.69222e-08
1.55731e-08
1.44963e-08
1.36893e-08
1.31129e-08
1.2744e-08
1.25463e-08
1.24323e-08
1.22843e-08
1.20839e-08
1.18976e-08
1.17806e-08
1.17328e-08
1.1719e-08
1.17235e-08
1.17604e-08
1.17911e-08
1.17353e-08
1.15745e-08
1.14038e-08
1.13025e-08
1.12634e-08
1.12049e-08
1.11199e-08
1.10631e-08
1.10826e-08
1.11438e-08
1.11274e-08
1.09832e-08
1.08207e-08
1.07366e-08
1.07569e-08
1.08192e-08
1.08299e-08
1.07571e-08
1.06446e-08
1.056e-08
1.05205e-08
1.05088e-08
1.04918e-08
1.04566e-08
1.04405e-08
1.04672e-08
1.05119e-08
1.05276e-08
1.05102e-08
1.04929e-08
1.05106e-08
1.05651e-08
1.0617e-08
1.06238e-08
1.06114e-08
1.06262e-08
1.06915e-08
1.07984e-08
1.09024e-08
1.09842e-08
1.10627e-08
1.11359e-08
1.1204e-08
1.12408e-08
1.12379e-08
1.12154e-08
1.11894e-08
1.11666e-08
1.11478e-08
1.11276e-08
1.11053e-08
1.10823e-08
1.10697e-08
1.1072e-08
1.11167e-08
1.1107e-08
1.10955e-08
1.11522e-08
1.10923e-08
1.10326e-08
1.09554e-08
1.0828e-08
1.06542e-08
1.04526e-08
1.02692e-08
1.0176e-08
1.01408e-08
1.01297e-08
1.01278e-08
1.01281e-08
1.01251e-08
1.01182e-08
1.01066e-08
1.00946e-08
1.0085e-08
1.00798e-08
1.0079e-08
1.00817e-08
1.00865e-08
1.00921e-08
1.00959e-08
1.00984e-08
1.00972e-08
1.0079e-08
1.00646e-08
1.0059e-08
1.00522e-08
1.00477e-08
1.00457e-08
1.00438e-08
1.00427e-08
1.00423e-08
1.00421e-08
1.00419e-08
1.00427e-08
1.00442e-08
1.00458e-08
1.0048e-08
1.00498e-08
1.00504e-08
1.00472e-08
1.00443e-08
1.00435e-08
1.00415e-08
1.00401e-08
1.00394e-08
1.00385e-08
1.0038e-08
1.00377e-08
1.00376e-08
1.00374e-08
1.00371e-08
1.0037e-08
1.00367e-08
1.00365e-08
1.00362e-08
1.0036e-08
1.00358e-08
1.00356e-08
1.00354e-08
1.00352e-08
1.0035e-08
1.00349e-08
1.00348e-08
1.00346e-08
1.00345e-08
1.00344e-08
1.00343e-08
1.00342e-08
1.00341e-08
1.00339e-08
1.00338e-08
1.00338e-08
1.00337e-08
1.00336e-08
1.00335e-08
1.00334e-08
1.00333e-08
1.00333e-08
1.00332e-08
1.00331e-08
1.0033e-08
1.00329e-08
1.00328e-08
1.00327e-08
1.00326e-08
1.00326e-08
1.00325e-08
1.00324e-08
1.00324e-08
1.00323e-08
1.00322e-08
1.00322e-08
1.00321e-08
1.00321e-08
1.0032e-08
1.00319e-08
1.00319e-08
1.00318e-08
1.00317e-08
1.00316e-08
1.00316e-08
1.00315e-08
1.00315e-08
1.00314e-08
1.00313e-08
1.00313e-08
1.00312e-08
1.00311e-08
1.0031e-08
1.00309e-08
1.00308e-08
1.00307e-08
1.00306e-08
1.00305e-08
1.00304e-08
1.00304e-08
1.00303e-08
1.00302e-08
1.00301e-08
1.003e-08
1.00299e-08
1.00298e-08
1.00297e-08
1.00296e-08
1.00295e-08
1.00294e-08
1.00293e-08
1.00292e-08
1.00291e-08
1.0029e-08
1.00289e-08
1.00288e-08
1.00287e-08
1.00287e-08
1.00286e-08
1.00285e-08
1.00284e-08
1.00283e-08
1.00282e-08
1.00282e-08
1.00281e-08
1.0028e-08
1.00279e-08
1.00278e-08
1.00278e-08
1.00277e-08
1.00276e-08
1.00275e-08
1.00274e-08
1.00274e-08
1.00273e-08
1.00272e-08
1.00272e-08
1.00271e-08
1.0027e-08
1.00269e-08
1.00269e-08
1.00268e-08
1.00267e-08
1.00266e-08
1.00266e-08
1.00265e-08
1.00264e-08
1.00263e-08
1.00263e-08
1.00262e-08
1.00262e-08
1.00261e-08
1.0026e-08
1.0026e-08
1.00259e-08
1.00259e-08
1.00259e-08
1.00258e-08
1.00258e-08
1.00257e-08
1.00256e-08
1.00256e-08
1.00255e-08
1.00255e-08
1.00254e-08
1.00254e-08
1.00253e-08
1.00253e-08
1.00252e-08
1.00252e-08
1.00251e-08
1.0025e-08
1.0025e-08
1.00249e-08
1.00248e-08
1.00248e-08
1.00247e-08
1.00246e-08
1.00246e-08
1.00245e-08
1.00245e-08
1.00244e-08
1.00243e-08
1.00243e-08
1.00242e-08
1.00241e-08
1.00241e-08
1.0024e-08
1.00239e-08
1.00239e-08
1.00238e-08
1.00237e-08
1.00236e-08
1.00236e-08
1.00235e-08
1.00234e-08
1.00234e-08
1.00233e-08
1.00232e-08
1.00231e-08
1.00231e-08
1.0023e-08
1.00229e-08
1.00228e-08
1.00228e-08
1.00227e-08
1.00226e-08
1.00225e-08
1.00225e-08
1.00224e-08
1.00223e-08
1.00222e-08
1.00221e-08
1.00221e-08
1.0022e-08
1.00219e-08
1.00218e-08
1.00218e-08
1.00217e-08
1.00216e-08
1.00216e-08
1.00215e-08
1.00214e-08
1.00214e-08
1.00213e-08
1.00212e-08
1.00212e-08
1.00211e-08
1.0021e-08
1.0021e-08
1.00209e-08
1.00208e-08
1.00208e-08
1.00207e-08
1.00206e-08
1.00206e-08
1.00205e-08
1.00205e-08
1.00204e-08
1.00203e-08
1.00203e-08
1.00202e-08
1.00201e-08
1.002e-08
1.002e-08
1.00199e-08
1.00198e-08
1.00198e-08
1.00197e-08
1.00196e-08
1.00195e-08
1.00195e-08
1.00194e-08
1.00193e-08
1.00192e-08
1.00192e-08
1.00191e-08
1.0019e-08
1.0019e-08
1.00189e-08
1.00188e-08
1.00187e-08
1.00187e-08
1.00186e-08
1.00186e-08
1.00185e-08
1.00184e-08
1.00184e-08
1.00183e-08
1.00182e-08
1.00182e-08
1.00181e-08
1.00181e-08
1.0018e-08
1.0018e-08
1.00179e-08
1.00178e-08
1.00178e-08
1.00177e-08
1.00176e-08
1.00176e-08
1.00175e-08
1.00175e-08
1.00174e-08
1.00174e-08
1.00173e-08
1.00172e-08
1.00172e-08
1.00171e-08
1.00171e-08
1.0017e-08
1.0017e-08
1.00169e-08
1.00168e-08
1.00168e-08
1.00167e-08
1.00166e-08
1.00166e-08
1.00165e-08
1.00165e-08
1.00164e-08
1.00163e-08
1.00162e-08
1.00161e-08
1.00161e-08
1.00161e-08
1.0016e-08
1.00161e-08
1.00159e-08
1.00163e-08
1.00161e-08
1.00163e-08
1.00165e-08
1.00165e-08
1.00164e-08
1.00163e-08
1.0016e-08
1.0015e-08
1.00152e-08
1.00161e-08
1.00161e-08
1.00161e-08
1.00161e-08
1.00161e-08
1.0016e-08
1.00155e-08
1.0015e-08
1.00157e-08
1.00157e-08
1.00156e-08
1.00154e-08
1.00154e-08
1.00153e-08
1.00152e-08
1.0015e-08
1.00147e-08
1.00148e-08
1.0015e-08
1.0015e-08
1.00149e-08
1.00149e-08
1.00149e-08
1.00148e-08
1.00147e-08
1.00146e-08
1.00143e-08
1.00143e-08
1.00147e-08
1.00144e-08
1.00153e-08
1.0014e-08
1.00135e-08
1.00144e-08
1.00145e-08
1.00172e-08
1.00179e-08
1.00202e-08
1.00191e-08
1.0017e-08
1.00174e-08
1.00172e-08
1.00169e-08
1.00169e-08
1.00167e-08
1.0016e-08
1.00157e-08
1.00151e-08
1.00144e-08
1.00139e-08
1.00134e-08
1.00129e-08
1.00125e-08
1.00121e-08
1.00117e-08
1.00114e-08
1.00111e-08
1.00108e-08
1.00106e-08
1.00104e-08
1.00102e-08
1.00101e-08
1.00101e-08
1.00102e-08
1.00102e-08
1.00102e-08
1.00103e-08
1.00102e-08
1.00102e-08
1.00103e-08
1.00104e-08
1.00105e-08
1.00106e-08
1.00107e-08
1.00108e-08
1.00109e-08
1.00109e-08
1.00108e-08
1.00107e-08
1.00106e-08
1.00106e-08
1.00106e-08
1.00107e-08
1.00108e-08
1.0011e-08
1.0011e-08
1.00111e-08
1.00111e-08
1.00111e-08
1.00111e-08
1.00111e-08
1.00111e-08
1.00112e-08
1.00111e-08
1.0011e-08
1.00109e-08
1.0011e-08
1.0011e-08
1.00111e-08
1.00112e-08
1.00111e-08
1.0011e-08
1.00108e-08
1.00106e-08
1.00105e-08
1.00104e-08
1.00105e-08
1.00106e-08
1.00106e-08
1.00106e-08
1.00103e-08
1.00103e-08
1.00105e-08
1.00107e-08
1.00105e-08
1.00102e-08
1.00101e-08
1.00101e-08
1.00102e-08
1.001e-08
1.001e-08
1.001e-08
1.00104e-08
1.00106e-08
1.00114e-08
1.00119e-08
1.00134e-08
1.00088e-08
1.00434e-08
1.01549e-08
1.03786e-08
1.0823e-08
1.15447e-08
1.23693e-08
1.28257e-08
1.27743e-08
1.24364e-08
1.20307e-08
1.16683e-08
1.13737e-08
1.11483e-08
1.09843e-08
1.08759e-08
1.08106e-08
1.07658e-08
1.07154e-08
1.06558e-08
1.06026e-08
1.05662e-08
1.05449e-08
1.05313e-08
1.05242e-08
1.05285e-08
1.05381e-08
1.05268e-08
1.04824e-08
1.04278e-08
1.03883e-08
1.03689e-08
1.03547e-08
1.03365e-08
1.03199e-08
1.03147e-08
1.03183e-08
1.03114e-08
1.0283e-08
1.02497e-08
1.02292e-08
1.02269e-08
1.02328e-08
1.02319e-08
1.02177e-08
1.0196e-08
1.01766e-08
1.01634e-08
1.01553e-08
1.01485e-08
1.01418e-08
1.01387e-08
1.01418e-08
1.01479e-08
1.015e-08
1.01484e-08
1.01498e-08
1.01582e-08
1.0172e-08
1.01836e-08
1.0187e-08
1.01886e-08
1.01975e-08
1.02163e-08
1.02413e-08
1.02659e-08
1.0292e-08
1.03241e-08
1.03547e-08
1.03755e-08
1.03879e-08
1.04014e-08
1.04127e-08
1.04211e-08
1.04281e-08
1.0434e-08
1.04389e-08
1.04444e-08
1.04537e-08
1.0469e-08
1.04886e-08
1.05101e-08
1.05329e-08
1.05569e-08
1.05829e-08
1.06046e-08
1.06218e-08
1.06444e-08
1.06529e-08
1.06402e-08
1.06114e-08
1.05562e-08
1.04753e-08
1.03669e-08
1.02505e-08
1.01696e-08
1.01223e-08
1.00952e-08
1.00775e-08
1.00677e-08
1.006e-08
1.00552e-08
1.0053e-08
1.00526e-08
1.00541e-08
1.00574e-08
1.00622e-08
1.00682e-08
1.00748e-08
1.00814e-08
1.00861e-08
1.00861e-08
1.00797e-08
1.00666e-08
1.00559e-08
1.00498e-08
1.00452e-08
1.00419e-08
1.00396e-08
1.00381e-08
1.00376e-08
1.00377e-08
1.00381e-08
1.00387e-08
1.00395e-08
1.00406e-08
1.00417e-08
1.00429e-08
1.00434e-08
1.00428e-08
1.00407e-08
1.00388e-08
1.00376e-08
1.00366e-08
1.00357e-08
1.00352e-08
1.00348e-08
1.00344e-08
1.00341e-08
1.0034e-08
1.00338e-08
1.00337e-08
1.00336e-08
1.00335e-08
1.00334e-08
1.00333e-08
1.00332e-08
1.00331e-08
1.00331e-08
1.0033e-08
1.0033e-08
1.00329e-08
1.00329e-08
1.00329e-08
1.00328e-08
1.00328e-08
1.00328e-08
1.00328e-08
1.00328e-08
1.00327e-08
1.00327e-08
1.00327e-08
1.00326e-08
1.00326e-08
1.00325e-08
1.00324e-08
1.00324e-08
1.00323e-08
1.00322e-08
1.00322e-08
1.00321e-08
1.0032e-08
1.00319e-08
1.00318e-08
1.00318e-08
1.00317e-08
1.00316e-08
1.00315e-08
1.00315e-08
1.00314e-08
1.00313e-08
1.00313e-08
1.00312e-08
1.00311e-08
1.00311e-08
1.0031e-08
1.0031e-08
1.00309e-08
1.00309e-08
1.00308e-08
1.00307e-08
1.00307e-08
1.00306e-08
1.00306e-08
1.00305e-08
1.00305e-08
1.00304e-08
1.00303e-08
1.00302e-08
1.00302e-08
1.00301e-08
1.003e-08
1.00299e-08
1.00298e-08
1.00297e-08
1.00297e-08
1.00296e-08
1.00295e-08
1.00294e-08
1.00293e-08
1.00292e-08
1.00291e-08
1.0029e-08
1.00289e-08
1.00288e-08
1.00287e-08
1.00286e-08
1.00285e-08
1.00284e-08
1.00283e-08
1.00282e-08
1.00281e-08
1.00281e-08
1.0028e-08
1.00279e-08
1.00278e-08
1.00277e-08
1.00276e-08
1.00276e-08
1.00275e-08
1.00274e-08
1.00273e-08
1.00273e-08
1.00272e-08
1.00271e-08
1.00271e-08
1.0027e-08
1.0027e-08
1.00269e-08
1.00268e-08
1.00268e-08
1.00267e-08
1.00266e-08
1.00266e-08
1.00265e-08
1.00264e-08
1.00264e-08
1.00263e-08
1.00262e-08
1.00261e-08
1.0026e-08
1.00259e-08