/*--------------------------------*- C++ -*----------------------------------*\
| =========                 |                                                 |
| \\      /  F ield         | OpenFOAM: The Open Source CFD Toolbox           |
|  \\    /   O peration     | Version:  v2006                                 |
|   \\  /    A nd           | Website:  www.openfoam.com                      |
|    \\/     M anipulation  |                                                 |
\*---------------------------------------------------------------------------*/
FoamFile
{
    version     2.0;
    format      ascii;
    class       volScalarField;
    location    "4.4";
    object      nut;
}
// * * * * * * * * * * * * * * * * * * * * * * * * * * * * * * * * * * * * * //

dimensions      [0 2 -1 0 0 0 0];


internalField   nonuniform List<scalar> 
33000
(
3.47696e-10
4.51177e-10
3.9091e-10
3.28315e-10
3.616e-10
5.04615e-10
7.76586e-10
1.24667e-09
1.87537e-09
2.45686e-09
2.84695e-09
3.11306e-09
3.31289e-09
3.47226e-09
3.58953e-09
3.6878e-09
3.81156e-09
3.97774e-09
4.1255e-09
4.23346e-09
4.31508e-09
4.40737e-09
4.52419e-09
4.6654e-09
4.83698e-09
5.04953e-09
5.24927e-09
5.39401e-09
5.493e-09
5.64125e-09
5.90697e-09
6.19385e-09
6.36471e-09
6.44113e-09
6.55789e-09
6.83621e-09
7.28897e-09
7.73363e-09
7.91813e-09
7.97232e-09
8.13109e-09
8.51949e-09
9.10113e-09
9.7034e-09
1.01515e-08
1.04613e-08
1.08029e-08
1.13333e-08
1.20886e-08
1.29238e-08
1.35487e-08
1.40852e-08
1.49475e-08
1.63463e-08
1.8592e-08
2.1141e-08
2.28704e-08
2.39341e-08
2.61334e-08
3.19547e-08
4.16793e-08
5.09429e-08
5.15065e-08
4.91145e-08
5.4297e-08
6.25977e-08
4.73767e-08
2.956e-08
1.98695e-08
1.49029e-08
1.22334e-08
1.04428e-08
9.20888e-09
8.35879e-09
7.95777e-09
7.63504e-09
7.96186e-09
7.17192e-09
1.22257e-08
3.03381e-08
2.41764e-08
4.56359e-08
4.05087e-08
1.00025e-07
9.93177e-08
9.88701e-08
9.88797e-08
9.85039e-08
9.70314e-08
9.41964e-08
9.04997e-08
7.05713e-08
4.83021e-08
3.05312e-08
2.06221e-08
1.61868e-08
1.24724e-08
1.01459e-08
9.47565e-09
1.04065e-08
1.16713e-08
1.22481e-08
1.24674e-08
1.1595e-08
1.0707e-08
1.10382e-08
1.17381e-08
1.27362e-08
1.39142e-08
1.57078e-08
1.63483e-08
1.70622e-08
1.84178e-08
2.02576e-08
2.22124e-08
2.28451e-08
2.09555e-08
1.94664e-08
2.11071e-08
2.42337e-08
2.88659e-08
3.22331e-08
3.15821e-08
3.79381e-08
4.67079e-08
5.54052e-08
6.15492e-08
5.86916e-08
5.24891e-08
4.72144e-08
4.17249e-08
3.587e-08
3.16404e-08
2.82005e-08
2.54872e-08
2.31763e-08
2.13364e-08
1.97416e-08
1.83636e-08
1.71798e-08
1.61701e-08
1.52978e-08
1.45224e-08
1.38232e-08
1.32001e-08
1.26599e-08
1.21775e-08
1.17296e-08
1.1319e-08
1.09423e-08
1.06061e-08
1.0306e-08
1.00251e-08
9.7634e-09
9.52119e-09
9.29607e-09
9.092e-09
8.9062e-09
8.73172e-09
8.56553e-09
8.41347e-09
8.27629e-09
8.1492e-09
8.02908e-09
7.9155e-09
7.81296e-09
7.72122e-09
7.63578e-09
7.55468e-09
7.47942e-09
7.41322e-09
7.35524e-09
7.30367e-09
7.25699e-09
7.21371e-09
7.17587e-09
7.14594e-09
7.12331e-09
7.10476e-09
7.09085e-09
7.08141e-09
7.07674e-09
7.07997e-09
7.08865e-09
7.09921e-09
7.11246e-09
7.13351e-09
7.16383e-09
7.19834e-09
7.23616e-09
7.27833e-09
7.32576e-09
7.38022e-09
7.43983e-09
7.50429e-09
7.57663e-09
7.65697e-09
7.74309e-09
7.83524e-09
7.93314e-09
8.04083e-09
8.16452e-09
8.30194e-09
8.44739e-09
8.59955e-09
8.76391e-09
8.94558e-09
9.15075e-09
9.37938e-09
9.62362e-09
9.88142e-09
1.01644e-08
1.04859e-08
1.08461e-08
1.12244e-08
1.16276e-08
1.20821e-08
1.25866e-08
1.31573e-08
1.38104e-08
1.45089e-08
1.52518e-08
1.60871e-08
1.70421e-08
1.81547e-08
1.94546e-08
2.0912e-08
2.25225e-08
2.44197e-08
2.66888e-08
2.93654e-08
3.26632e-08
3.68476e-08
4.18502e-08
4.79407e-08
5.5703e-08
5.57013e-08
5.57214e-08
5.57628e-08
5.58144e-08
5.58684e-08
5.59129e-08
5.59391e-08
5.5936e-08
5.59023e-08
5.58407e-08
5.57579e-08
5.02312e-08
4.57162e-08
4.19436e-08
3.86547e-08
3.5861e-08
3.35395e-08
3.15443e-08
2.97616e-08
2.82166e-08
2.6861e-08
2.56262e-08
2.45251e-08
2.35243e-08
2.26222e-08
2.18184e-08
2.10801e-08
2.03941e-08
1.97565e-08
1.91736e-08
1.86464e-08
1.81679e-08
1.77267e-08
1.73031e-08
1.68993e-08
1.65227e-08
1.61763e-08
1.5863e-08
1.55689e-08
1.5286e-08
1.5016e-08
1.47641e-08
1.45317e-08
1.43097e-08
1.40924e-08
1.38907e-08
1.37086e-08
1.35339e-08
1.33646e-08
1.32007e-08
1.30443e-08
1.2896e-08
1.27564e-08
1.26259e-08
1.25011e-08
1.23803e-08
1.22624e-08
1.21478e-08
1.20417e-08
1.1943e-08
1.18467e-08
1.17545e-08
1.16658e-08
1.15794e-08
1.14989e-08
1.14231e-08
1.13504e-08
1.12798e-08
1.12113e-08
1.11477e-08
1.10889e-08
1.10317e-08
1.09743e-08
1.0921e-08
1.0872e-08
1.08261e-08
1.0782e-08
1.07387e-08
1.0698e-08
1.06618e-08
1.06289e-08
1.05975e-08
1.05676e-08
1.05409e-08
1.05179e-08
1.04978e-08
1.04778e-08
1.04593e-08
1.0445e-08
1.04339e-08
1.04237e-08
1.04137e-08
1.04063e-08
1.04019e-08
1.03999e-08
1.03997e-08
1.04006e-08
1.04023e-08
1.04059e-08
1.04109e-08
1.04177e-08
1.04267e-08
1.04374e-08
1.04486e-08
1.04606e-08
1.04749e-08
1.04917e-08
1.05103e-08
1.05303e-08
1.05506e-08
1.05719e-08
1.05955e-08
1.06218e-08
1.065e-08
1.06778e-08
1.07068e-08
1.07389e-08
1.07734e-08
1.08094e-08
1.08456e-08
1.08839e-08
1.09256e-08
1.09691e-08
1.10134e-08
1.10592e-08
1.11081e-08
1.11589e-08
1.12121e-08
1.12673e-08
1.13238e-08
1.13831e-08
1.14452e-08
1.15098e-08
1.15775e-08
1.16471e-08
1.17182e-08
1.17921e-08
1.18695e-08
1.19498e-08
1.20319e-08
1.21173e-08
1.22062e-08
1.22989e-08
1.23953e-08
1.24946e-08
1.25958e-08
1.27009e-08
1.281e-08
1.29241e-08
1.30419e-08
1.31643e-08
1.32904e-08
1.34197e-08
1.35535e-08
1.36957e-08
1.38409e-08
1.39882e-08
1.41415e-08
1.43062e-08
1.4473e-08
1.46493e-08
1.48346e-08
1.503e-08
1.52319e-08
1.54424e-08
1.56628e-08
1.58903e-08
1.61349e-08
1.63842e-08
1.66569e-08
1.67093e-08
1.65613e-08
1.64166e-08
1.62756e-08
1.61377e-08
1.60035e-08
1.58719e-08
1.57438e-08
1.5619e-08
1.54959e-08
1.53756e-08
1.52579e-08
1.51383e-08
1.50262e-08
1.49217e-08
1.48097e-08
1.47117e-08
1.46057e-08
1.44608e-08
1.43666e-08
1.43123e-08
1.41752e-08
1.42103e-08
1.4205e-08
1.4494e-08
1.44279e-08
1.45224e-08
1.44839e-08
1.45016e-08
1.44616e-08
1.44528e-08
1.44179e-08
1.43994e-08
1.43612e-08
1.43334e-08
1.42965e-08
1.42174e-08
1.41855e-08
1.41755e-08
1.40972e-08
1.41702e-08
1.41935e-08
1.44326e-08
1.44302e-08
1.4504e-08
1.45058e-08
1.45195e-08
1.45119e-08
1.45112e-08
1.44894e-08
1.44713e-08
1.44119e-08
1.43793e-08
1.43628e-08
1.42913e-08
1.42987e-08
1.42162e-08
1.39159e-08
1.38879e-08
1.39719e-08
1.37296e-08
1.46483e-08
1.51656e-08
1.81187e-08
1.85158e-08
1.96933e-08
2.02158e-08
2.07065e-08
2.10634e-08
2.1345e-08
2.15555e-08
2.17103e-08
2.18305e-08
2.19259e-08
2.20021e-08
2.20627e-08
2.21088e-08
2.21412e-08
2.21653e-08
2.21823e-08
2.21929e-08
2.21974e-08
2.21965e-08
2.21126e-08
2.17736e-08
2.14469e-08
2.11314e-08
2.08258e-08
2.05333e-08
2.02531e-08
1.99803e-08
1.97164e-08
1.94624e-08
1.92166e-08
1.89791e-08
1.87499e-08
1.85281e-08
1.8313e-08
1.81046e-08
1.79032e-08
1.77047e-08
1.75116e-08
1.73258e-08
1.71436e-08
1.69655e-08
1.67913e-08
1.66206e-08
1.64532e-08
1.6289e-08
1.61283e-08
1.59713e-08
1.58181e-08
1.56687e-08
1.55233e-08
1.53818e-08
1.5244e-08
1.51085e-08
1.49736e-08
1.48387e-08
1.47048e-08
1.45744e-08
1.44502e-08
1.43299e-08
1.42087e-08
1.40862e-08
1.39617e-08
1.38401e-08
1.37277e-08
1.36191e-08
1.3508e-08
1.33928e-08
1.32794e-08
1.31758e-08
1.30761e-08
1.29715e-08
1.28644e-08
1.27644e-08
1.2673e-08
1.25818e-08
1.24372e-08
1.22421e-08
1.26767e-08
1.12381e-08
1.20993e-08
1.53667e-09
8.39322e-10
1.06236e-09
3.11536e-09
1.61565e-08
1.43028e-08
1.62994e-08
1.61474e-08
1.62096e-08
1.61415e-08
1.74302e-08
1.77101e-08
1.74528e-08
1.70356e-08
1.72263e-08
1.80098e-08
1.8437e-08
1.85461e-08
1.8202e-08
1.74754e-08
1.67663e-08
1.70878e-08
1.81964e-08
1.97338e-08
1.93936e-08
1.68621e-08
1.51272e-08
1.53706e-08
1.74373e-08
1.9658e-08
1.86355e-08
1.63084e-08
1.54626e-08
1.61473e-08
1.65959e-08
1.64711e-08
1.56393e-08
1.4931e-08
1.55086e-08
1.53129e-08
1.49406e-08
1.42315e-08
1.27969e-08
1.27418e-08
1.33633e-08
1.37062e-08
1.40562e-08
1.32978e-08
1.27478e-08
1.34393e-08
1.39143e-08
1.28294e-08
1.24604e-08
1.31565e-08
1.40009e-08
1.38938e-08
1.23977e-08
1.1309e-08
1.12875e-08
1.22636e-08
1.40264e-08
1.55749e-08
1.76019e-08
1.75027e-08
1.74204e-08
1.87513e-08
1.92652e-08
1.90697e-08
1.75977e-08
1.55166e-08
1.40049e-08
1.31714e-08
1.30393e-08
1.37392e-08
1.54836e-08
1.90036e-08
2.63006e-08
3.18367e-08
3.18914e-08
2.62766e-08
1.22374e-08
9.52352e-09
2.01755e-08
5.59253e-09
3.27209e-08
1.09906e-08
2.74984e-08
4.41913e-08
1.90959e-08
1.70204e-08
1.68189e-08
1.9048e-08
1.29507e-08
9.4002e-09
7.52199e-09
5.85939e-09
4.62845e-09
3.97924e-09
3.46797e-09
2.94839e-09
2.95835e-09
3.8439e-09
5.90823e-09
9.03071e-09
1.01786e-08
9.17996e-09
1.02476e-08
9.99496e-09
9.85875e-09
1.21239e-08
1.68068e-08
1.55911e-08
1.40582e-08
1.26475e-08
1.14037e-08
1.17684e-08
1.26969e-08
1.85429e-08
2.16928e-08
1.95731e-08
2.97759e-08
1.7177e-08
1.62178e-08
1.41996e-08
1.3411e-08
1.13843e-08
1.23884e-08
1.44388e-08
1.49607e-08
1.56916e-08
1.54043e-08
1.51262e-08
1.56262e-08
1.61063e-08
1.63848e-08
1.68665e-08
1.73103e-08
1.75006e-08
1.77554e-08
1.82361e-08
1.86475e-08
1.90304e-08
1.95856e-08
2.01745e-08
2.08905e-08
2.14106e-08
2.18477e-08
2.24463e-08
2.32564e-08
2.42677e-08
2.51594e-08
2.58296e-08
2.64962e-08
2.73161e-08
2.85483e-08
3.00439e-08
3.12109e-08
3.22643e-08
3.34436e-08
3.49232e-08
3.67835e-08
3.89287e-08
4.10811e-08
4.31715e-08
4.57884e-08
4.94594e-08
5.36178e-08
5.71423e-08
6.14103e-08
6.74674e-08
7.58448e-08
8.61857e-08
9.65576e-08
1.09638e-07
1.28267e-07
1.5443e-07
2.00162e-07
2.67245e-07
2.84937e-07
2.8456e-07
2.84629e-07
2.79457e-07
2.29234e-07
1.82758e-07
1.44202e-07
1.17703e-07
1.00614e-07
8.94913e-08
8.0373e-08
7.2757e-08
6.71761e-08
6.23591e-08
5.77269e-08
5.33412e-08
4.89843e-08
4.54827e-08
4.29261e-08
4.09392e-08
3.91248e-08
3.69542e-08
3.46571e-08
3.29847e-08
3.17929e-08
3.05962e-08
2.92189e-08
2.78676e-08
2.67935e-08
2.59303e-08
2.5194e-08
2.44131e-08
2.35557e-08
2.27636e-08
2.22435e-08
2.18813e-08
2.14516e-08
2.09638e-08
2.0496e-08
2.01174e-08
1.9837e-08
1.96726e-08
1.96413e-08
1.9596e-08
1.94453e-08
1.92579e-08
1.92559e-08
1.93456e-08
1.94924e-08
1.96843e-08
1.99023e-08
2.01076e-08
2.03697e-08
2.06655e-08
2.10621e-08
2.16259e-08
2.21768e-08
2.26856e-08
2.32042e-08
2.3811e-08
2.45588e-08
2.54648e-08
2.65021e-08
2.7454e-08
2.83011e-08
2.92363e-08
3.01958e-08
3.12911e-08
3.23376e-08
3.34682e-08
3.49047e-08
3.63584e-08
3.7409e-08
3.85702e-08
4.01894e-08
4.19206e-08
4.34505e-08
4.48978e-08
4.64692e-08
4.83539e-08
5.04986e-08
5.30308e-08
5.54895e-08
5.72329e-08
5.92024e-08
6.18148e-08
6.4741e-08
6.82993e-08
7.21172e-08
7.58318e-08
7.9347e-08
8.25432e-08
8.67109e-08
9.18848e-08
9.75523e-08
1.03684e-07
1.10075e-07
1.17304e-07
1.25623e-07
1.33622e-07
1.42247e-07
1.5206e-07
1.62966e-07
1.78488e-07
1.97579e-07
2.14377e-07
2.30566e-07
2.5181e-07
2.80477e-07
3.13667e-07
3.25586e-07
3.26279e-07
3.27951e-07
3.30105e-07
3.31197e-07
3.3118e-07
3.31348e-07
3.32231e-07
3.3355e-07
3.35088e-07
3.36302e-07
3.37129e-07
3.37986e-07
3.39228e-07
3.41117e-07
3.42766e-07
3.43978e-07
3.45325e-07
3.47441e-07
3.5032e-07
3.51894e-07
3.53187e-07
3.54998e-07
3.57543e-07
3.6042e-07
3.62882e-07
3.5264e-07
3.37161e-07
3.22134e-07
3.07875e-07
2.96152e-07
2.86171e-07
2.76951e-07
2.67983e-07
2.5844e-07
2.48569e-07
2.41557e-07
2.35659e-07
2.29419e-07
2.22699e-07
2.15885e-07
2.09935e-07
2.05049e-07
2.00316e-07
1.95468e-07
1.91007e-07
1.86822e-07
1.83017e-07
1.79015e-07
1.75222e-07
1.71724e-07
1.68398e-07
1.65449e-07
1.62502e-07
1.59425e-07
1.56904e-07
1.54705e-07
1.52387e-07
1.49995e-07
1.47867e-07
1.46015e-07
1.44249e-07
1.42519e-07
1.40772e-07
1.39339e-07
1.37981e-07
1.36622e-07
1.35453e-07
1.3441e-07
1.3351e-07
1.32455e-07
1.31286e-07
1.30346e-07
1.30033e-07
1.29609e-07
1.28828e-07
1.28336e-07
1.27801e-07
1.27398e-07
1.27291e-07
1.27044e-07
1.26792e-07
1.26758e-07
1.26785e-07
1.26867e-07
1.26795e-07
1.26859e-07
1.27007e-07
1.27285e-07
1.27753e-07
1.2804e-07
1.28246e-07
1.28648e-07
1.29188e-07
1.29742e-07
1.30165e-07
1.30572e-07
1.3146e-07
1.32205e-07
1.32863e-07
1.33677e-07
1.34554e-07
1.35461e-07
1.36365e-07
1.37183e-07
1.38065e-07
1.39323e-07
1.40547e-07
1.41677e-07
1.42955e-07
1.43937e-07
1.4546e-07
1.46709e-07
1.48402e-07
1.49596e-07
1.51458e-07
1.52618e-07
1.54813e-07
1.55772e-07
1.58298e-07
1.59367e-07
1.60204e-07
1.62157e-07
1.63046e-07
1.67207e-07
1.68675e-07
1.74951e-07
1.76679e-07
1.71725e-07
1.7528e-07
1.75358e-07
1.81721e-07
2.27236e-07
2.26144e-07
1.65802e-07
1.67226e-07
1.283e-07
1.15657e-07
8.24542e-08
8.54303e-08
1.19371e-07
1.4569e-07
1.68771e-07
1.53108e-07
1.79797e-07
1.68781e-07
1.81055e-07
1.79152e-07
1.91993e-07
2.01444e-07
2.5471e-07
2.52214e-07
1.77566e-07
1.81886e-07
1.48602e-07
1.36753e-07
9.97799e-08
1.05851e-07
1.54055e-07
1.85339e-07
2.14221e-07
1.86076e-07
2.33571e-07
2.24403e-07
2.66492e-07
2.65497e-07
2.74955e-07
2.68637e-07
2.76426e-07
2.6865e-07
3.17212e-07
6.95362e-07
7.22492e-07
1.88452e-07
1.28039e-07
8.44875e-08
6.33988e-08
4.50697e-08
4.31785e-08
5.65018e-08
6.51647e-08
8.26785e-08
9.89315e-08
1.36462e-07
1.38054e-07
1.51523e-07
1.58465e-07
1.65261e-07
1.72317e-07
1.79662e-07
1.86789e-07
1.93665e-07
2.00492e-07
2.07188e-07
2.13548e-07
2.19766e-07
2.26112e-07
2.32715e-07
2.39364e-07
2.45817e-07
2.51944e-07
2.57637e-07
2.62782e-07
2.67927e-07
2.73367e-07
2.78914e-07
2.84164e-07
2.90961e-07
2.98752e-07
3.05894e-07
3.13105e-07
3.20879e-07
3.29215e-07
3.37624e-07
3.45773e-07
3.53847e-07
3.6258e-07
3.72445e-07
3.82813e-07
3.88775e-07
3.95253e-07
4.01882e-07
4.07505e-07
4.12427e-07
4.17445e-07
4.23324e-07
4.30445e-07
4.38579e-07
4.47232e-07
4.56251e-07
4.66147e-07
4.77324e-07
4.89106e-07
4.99588e-07
5.06195e-07
5.09221e-07
5.12582e-07
5.19677e-07
5.28689e-07
5.35003e-07
5.34678e-07
5.28171e-07
5.29564e-07
5.4877e-07
5.6484e-07
5.65958e-07
5.56228e-07
5.56764e-07
5.79209e-07
6.00836e-07
5.97e-07
5.87214e-07
5.98255e-07
6.16574e-07
6.10366e-07
6.10371e-07
5.05175e-07
3.59324e-07
2.11762e-07
9.20793e-08
1.04261e-07
1.60736e-07
9.10456e-10
9.2887e-10
2.10622e-09
7.57114e-09
1.09841e-08
4.11574e-08
4.66059e-08
4.77217e-08
3.42954e-08
2.91325e-08
2.42966e-08
1.99088e-08
1.64437e-08
1.38545e-08
1.25865e-08
1.2574e-08
1.29104e-08
1.23848e-08
1.09478e-08
9.30702e-09
8.38443e-09
8.67113e-09
9.95198e-09
1.14578e-08
1.18828e-08
9.55177e-09
7.5485e-09
6.98245e-09
8.17935e-09
1.01424e-08
1.0351e-08
8.00546e-09
6.53355e-09
6.93209e-09
8.39317e-09
9.45361e-09
8.88554e-09
6.88484e-09
6.10916e-09
6.30843e-09
6.68738e-09
7.24588e-09
6.67001e-09
5.96626e-09
5.83391e-09
5.82589e-09
6.2375e-09
6.94648e-09
6.90704e-09
6.5178e-09
6.63088e-09
7.05278e-09
7.50763e-09
8.05811e-09
8.0782e-09
6.81125e-09
5.93578e-09
5.93885e-09
6.54393e-09
7.17968e-09
7.34421e-09
7.29326e-09
7.43736e-09
7.97574e-09
9.52496e-09
1.02197e-08
9.34887e-09
8.82353e-09
8.49311e-09
8.67671e-09
9.25175e-09
9.46008e-09
9.65325e-09
9.99942e-09
1.05142e-08
9.9165e-09
8.74319e-09
8.05715e-09
8.45569e-09
1.27847e-08
1.47585e-08
1.61721e-08
1.76168e-08
7.77625e-09
6.88544e-09
1.07582e-08
4.53882e-09
6.87734e-09
1.74896e-08
2.07747e-08
1.20676e-08
1.78972e-08
9.1705e-09
9.09314e-09
7.50216e-09
6.76455e-09
5.7682e-09
5.71345e-09
4.98412e-09
3.94115e-09
3.05012e-09
2.5666e-09
2.11127e-09
2.06463e-09
2.2958e-09
3.05298e-09
4.39368e-09
6.92466e-09
7.08168e-09
8.16589e-09
8.12603e-09
7.63881e-09
9.83073e-09
1.32161e-08
1.03685e-08
8.80154e-09
8.13506e-09
8.89149e-09
1.20193e-08
1.65787e-08
2.54555e-08
1.96265e-08
1.41993e-08
2.00901e-08
1.47368e-08
1.41111e-08
1.28355e-08
1.23115e-08
1.01199e-08
1.11067e-08
1.31374e-08
1.3756e-08
1.49133e-08
1.42914e-08
1.39203e-08
1.3642e-08
1.39573e-08
1.48929e-08
1.52577e-08
1.61855e-08
1.63088e-08
1.65285e-08
1.70187e-08
1.76754e-08
1.83095e-08
1.88815e-08
1.93331e-08
2.0006e-08
2.08224e-08
2.18076e-08
2.24985e-08
2.29985e-08
2.37218e-08
2.47352e-08
2.59771e-08
2.72819e-08
2.82741e-08
2.92938e-08
3.05987e-08
3.2051e-08
3.33973e-08
3.50975e-08
3.73598e-08
3.98337e-08
4.21966e-08
4.49608e-08
4.84491e-08
5.21237e-08
5.67079e-08
6.14024e-08
6.70563e-08
7.64328e-08
8.7421e-08
9.84812e-08
1.11773e-07
1.27363e-07
1.52943e-07
1.94526e-07
2.22765e-07
2.29226e-07
2.25248e-07
2.06844e-07
1.79687e-07
1.45148e-07
1.17241e-07
1.00231e-07
9.01778e-08
8.12614e-08
7.25007e-08
6.61399e-08
6.12669e-08
5.66979e-08
5.24679e-08
4.85437e-08
4.50341e-08
4.2099e-08
3.9548e-08
3.74263e-08
3.57603e-08
3.40913e-08
3.24127e-08
3.08923e-08
2.94318e-08
2.81375e-08
2.70078e-08
2.59934e-08
2.51874e-08
2.44995e-08
2.36612e-08
2.27229e-08
2.19505e-08
2.14215e-08
2.11017e-08
2.06627e-08
2.01113e-08
1.97271e-08
1.9404e-08
1.91036e-08
1.89044e-08
1.87429e-08
1.85667e-08
1.8451e-08
1.83572e-08
1.8334e-08
1.84979e-08
1.85596e-08
1.84897e-08
1.85614e-08
1.88428e-08
1.9165e-08
1.95112e-08
1.98551e-08
2.00538e-08
2.04035e-08
2.10639e-08
2.16137e-08
2.20178e-08
2.25803e-08
2.33179e-08
2.41753e-08
2.50926e-08
2.59416e-08
2.65213e-08
2.7247e-08
2.83023e-08
2.9533e-08
3.06709e-08
3.16427e-08
3.27408e-08
3.3999e-08
3.51067e-08
3.63219e-08
3.78687e-08
3.95639e-08
4.09473e-08
4.20136e-08
4.349e-08
4.54235e-08
4.76531e-08
5.00921e-08
5.2188e-08
5.38572e-08
5.57035e-08
5.83544e-08
6.1187e-08
6.39536e-08
6.73199e-08
7.09631e-08
7.45076e-08
7.78594e-08
8.21995e-08
8.77262e-08
9.29922e-08
9.73042e-08
1.01783e-07
1.08914e-07
1.18834e-07
1.27225e-07
1.3459e-07
1.43939e-07
1.55237e-07
1.67943e-07
1.82174e-07
1.97416e-07
2.15752e-07
2.39238e-07
2.70675e-07
3.01332e-07
3.21095e-07
3.57023e-07
4.15342e-07
4.92329e-07
5.95041e-07
6.91709e-07
7.86793e-07
9.28045e-07
1.08151e-06
1.22453e-06
1.32387e-06
1.27136e-06
1.14325e-06
9.83228e-07
8.15608e-07
7.23225e-07
6.85013e-07
6.22931e-07
5.53125e-07
5.01167e-07
4.70568e-07
4.43097e-07
4.17329e-07
3.92476e-07
3.67603e-07
3.52666e-07
3.40978e-07
3.25812e-07
3.10481e-07
2.96903e-07
2.86278e-07
2.77575e-07
2.7073e-07
2.61533e-07
2.49614e-07
2.41317e-07
2.35957e-07
2.30253e-07
2.23879e-07
2.16662e-07
2.10354e-07
2.05612e-07
2.01638e-07
1.96978e-07
1.91469e-07
1.86888e-07
1.83012e-07
1.79458e-07
1.75606e-07
1.7198e-07
1.684e-07
1.64808e-07
1.621e-07
1.59741e-07
1.57196e-07
1.54953e-07
1.52591e-07
1.49853e-07
1.47459e-07
1.45598e-07
1.43989e-07
1.41957e-07
1.40136e-07
1.38984e-07
1.37714e-07
1.36273e-07
1.34652e-07
1.33371e-07
1.32903e-07
1.32313e-07
1.31007e-07
1.29497e-07
1.28695e-07
1.28688e-07
1.28483e-07
1.27655e-07
1.26753e-07
1.26213e-07
1.26295e-07
1.2648e-07
1.26068e-07
1.2575e-07
1.25602e-07
1.25623e-07
1.25891e-07
1.25911e-07
1.25692e-07
1.25794e-07
1.26438e-07
1.27181e-07
1.27376e-07
1.27495e-07
1.27654e-07
1.28306e-07
1.28879e-07
1.29374e-07
1.30131e-07
1.31026e-07
1.31762e-07
1.3219e-07
1.32975e-07
1.34024e-07
1.3524e-07
1.35643e-07
1.36432e-07
1.37699e-07
1.39011e-07
1.39899e-07
1.4164e-07
1.42831e-07
1.43947e-07
1.44846e-07
1.46277e-07
1.47482e-07
1.49519e-07
1.51179e-07
1.53067e-07
1.54383e-07
1.54192e-07
1.5633e-07
1.56615e-07
1.60673e-07
1.62153e-07
1.67685e-07
1.6962e-07
1.64501e-07
1.67668e-07
1.67058e-07
1.73869e-07
2.12143e-07
2.11183e-07
1.59999e-07
1.58886e-07
1.21463e-07
1.1048e-07
7.97816e-08
8.4154e-08
1.14592e-07
1.21542e-07
1.49423e-07
1.63997e-07
2.78324e-07
2.30487e-07
1.86746e-07
1.92784e-07
1.88882e-07
2.44817e-07
2.24646e-07
1.82015e-07
1.63534e-07
1.57807e-07
1.36039e-07
1.2617e-07
9.42213e-08
1.01491e-07
1.44558e-07
1.52889e-07
1.87613e-07
1.99192e-07
3.3481e-07
2.91173e-07
2.62689e-07
2.66144e-07
2.44158e-07
2.50259e-07
2.16158e-07
2.23479e-07
2.70384e-07
4.9274e-07
7.27484e-07
1.81087e-07
1.18451e-07
7.44287e-08
5.651e-08
4.64195e-08
4.93954e-08
6.22009e-08
6.50882e-08
7.9144e-08
9.65451e-08
1.93585e-07
1.84137e-07
1.90879e-07
1.85948e-07
1.67821e-07
1.68529e-07
1.72518e-07
1.7839e-07
1.84797e-07
1.91324e-07
1.97852e-07
2.0411e-07
2.09832e-07
2.15231e-07
2.20829e-07
2.27065e-07
2.33982e-07
2.41271e-07
2.48501e-07
2.55435e-07
2.62087e-07
2.68122e-07
2.7242e-07
2.77718e-07
2.83682e-07
2.89861e-07
2.96272e-07
3.03358e-07
3.10648e-07
3.17521e-07
3.2361e-07
3.28921e-07
3.33589e-07
3.38349e-07
3.43927e-07
3.5067e-07
3.58567e-07
3.67283e-07
3.76706e-07
3.86108e-07
3.94431e-07
4.01499e-07
4.07836e-07
4.14413e-07
4.22233e-07
4.31416e-07
4.41097e-07
4.49952e-07
4.57366e-07
4.64239e-07
4.72505e-07
4.8348e-07
4.96451e-07
5.08791e-07
5.17788e-07
5.23647e-07
5.27851e-07
5.29956e-07
5.29129e-07
5.27035e-07
5.2984e-07
5.45594e-07
5.70888e-07
5.85334e-07
5.75662e-07
5.59037e-07
5.64649e-07
6.0329e-07
6.33798e-07
6.07514e-07
5.70505e-07
5.77841e-07
6.16959e-07
6.09554e-07
5.73001e-07
5.99642e-07
5.31834e-07
3.66862e-07
2.13555e-07
9.13577e-08
1.03846e-07
1.66765e-07
9.49402e-10
1.20613e-09
3.41455e-09
5.93479e-09
1.18786e-08
2.37577e-08
3.17217e-08
3.4809e-08
3.24225e-08
2.93246e-08
2.46246e-08
1.79334e-08
1.28941e-08
1.00518e-08
8.59307e-09
8.22502e-09
8.25749e-09
7.55616e-09
6.78712e-09
6.33991e-09
6.22361e-09
6.41748e-09
6.61754e-09
6.76009e-09
7.22014e-09
7.13278e-09
6.52365e-09
5.82073e-09
5.82419e-09
6.1932e-09
6.58903e-09
6.2567e-09
5.51567e-09
5.26988e-09
5.80763e-09
6.74077e-09
7.04221e-09
5.70775e-09
4.74841e-09
4.53019e-09
4.99972e-09
5.99951e-09
6.3303e-09
5.38666e-09
4.50785e-09
4.31472e-09
4.78035e-09
5.66453e-09
6.11096e-09
5.61681e-09
5.40574e-09
6.05122e-09
7.01943e-09
7.10138e-09
6.67342e-09
5.90749e-09
5.39266e-09
5.52619e-09
5.87358e-09
5.66524e-09
5.25373e-09
5.0345e-09
5.2129e-09
6.32077e-09
7.88871e-09
7.52836e-09
6.05488e-09
4.99281e-09
4.70223e-09
4.99917e-09
5.42342e-09
5.82093e-09
6.44963e-09
7.66739e-09
9.77266e-09
1.11682e-08
9.11052e-09
6.77843e-09
5.5767e-09
5.43901e-09
5.08812e-09
5.41161e-09
7.59916e-09
7.96188e-09
9.1923e-09
1.22383e-08
4.12883e-08
5.93241e-09
5.00691e-09
2.08228e-08
4.81039e-09
1.73474e-08
2.21115e-08
9.25834e-09
9.24018e-09
6.74399e-09
6.60874e-09
5.56544e-09
5.94606e-09
5.59062e-09
5.88791e-09
5.11114e-09
4.07111e-09
2.9954e-09
2.46263e-09
2.0333e-09
1.94639e-09
2.08559e-09
2.38151e-09
3.39453e-09
6.68772e-09
7.56624e-09
7.67692e-09
7.7899e-09
7.0611e-09
9.12877e-09
1.10684e-08
9.47057e-09
8.39382e-09
7.69432e-09
9.68309e-09
1.36788e-08
2.1773e-08
2.8211e-08
1.88602e-08
1.24594e-08
1.82325e-08
1.5741e-08
1.51149e-08
1.40774e-08
1.33387e-08
1.06813e-08
1.17418e-08
1.39299e-08
1.40823e-08
1.46224e-08
1.52964e-08
1.47971e-08
1.43436e-08
1.49822e-08
1.5986e-08
1.63801e-08
1.71617e-08
1.72809e-08
1.76341e-08
1.83337e-08
1.92008e-08
1.98565e-08
2.06097e-08
2.13161e-08
2.19894e-08
2.26009e-08
2.34822e-08
2.46128e-08
2.57266e-08
2.6597e-08
2.75218e-08
2.86971e-08
3.02057e-08
3.15602e-08
3.2703e-08
3.41683e-08
3.62998e-08
3.90436e-08
4.14209e-08
4.35656e-08
4.64955e-08
5.04623e-08
5.50063e-08
5.90926e-08
6.36276e-08
7.14656e-08
8.20459e-08
9.13911e-08
1.00114e-07
1.107e-07
1.26796e-07
1.50623e-07
1.63261e-07
1.67223e-07
1.70454e-07
1.59747e-07
1.39982e-07
1.19395e-07
1.01651e-07
9.03227e-08
8.39407e-08
7.73295e-08
7.02794e-08
6.39901e-08
5.83425e-08
5.35437e-08
4.96991e-08
4.65609e-08
4.4037e-08
4.14703e-08
3.88195e-08
3.64749e-08
3.46024e-08
3.3193e-08
3.19839e-08
3.04775e-08
2.88749e-08
2.7508e-08
2.65801e-08
2.59455e-08
2.52006e-08
2.43511e-08
2.33162e-08
2.23893e-08
2.18137e-08
2.1503e-08
2.12231e-08
2.06463e-08
2.00008e-08
1.96569e-08
1.94602e-08
1.92459e-08
1.90745e-08
1.89207e-08
1.86245e-08
1.8397e-08
1.83661e-08
1.85054e-08
1.87118e-08
1.87683e-08
1.86756e-08
1.86272e-08
1.88189e-08
1.92089e-08
1.96487e-08
2.00342e-08
2.0222e-08
2.04959e-08
2.10254e-08
2.15693e-08
2.20299e-08
2.2555e-08
2.3316e-08
2.41382e-08
2.48094e-08
2.54953e-08
2.61445e-08
2.69384e-08
2.80389e-08
2.92758e-08
3.04673e-08
3.14065e-08
3.22354e-08
3.33032e-08
3.45352e-08
3.5948e-08
3.74399e-08
3.90014e-08
4.04999e-08
4.15814e-08
4.29988e-08
4.51002e-08
4.73015e-08
4.91523e-08
5.09109e-08
5.3088e-08
5.53945e-08
5.80939e-08
6.06753e-08
6.28011e-08
6.58093e-08
6.96733e-08
7.34864e-08
7.70185e-08
8.13942e-08
8.67771e-08
9.19249e-08
9.62305e-08
1.00182e-07
1.06039e-07
1.15007e-07
1.2465e-07
1.33189e-07
1.42628e-07
1.53485e-07
1.63704e-07
1.74092e-07
1.8933e-07
2.12567e-07
2.36289e-07
2.60686e-07
2.86856e-07
3.04853e-07
3.35906e-07
3.91287e-07
4.53803e-07
5.23879e-07
6.07892e-07
6.86601e-07
7.57174e-07
8.06777e-07
8.72595e-07
9.72002e-07
9.71521e-07
8.78416e-07
7.67752e-07
6.9827e-07
6.91087e-07
6.52609e-07
5.65308e-07
5.10386e-07
4.81978e-07
4.63183e-07
4.34669e-07
4.01825e-07
3.77533e-07
3.62165e-07
3.51878e-07
3.3679e-07
3.18169e-07
3.05234e-07
2.96855e-07
2.86017e-07
2.74643e-07
2.67712e-07
2.59281e-07
2.48609e-07
2.41893e-07
2.34898e-07
2.2786e-07
2.23069e-07
2.16684e-07
2.10163e-07
2.05097e-07
2.00516e-07
1.95844e-07
1.91005e-07
1.86812e-07
1.8283e-07
1.78929e-07
1.7474e-07
1.70981e-07
1.67557e-07
1.64317e-07
1.61597e-07
1.59018e-07
1.56681e-07
1.54409e-07
1.5207e-07
1.49685e-07
1.47132e-07
1.44871e-07
1.43064e-07
1.41081e-07
1.39742e-07
1.3887e-07
1.3721e-07
1.35469e-07
1.3392e-07
1.32957e-07
1.32484e-07
1.3172e-07
1.30576e-07
1.29321e-07
1.28485e-07
1.28079e-07
1.27878e-07
1.27145e-07
1.26281e-07
1.25974e-07
1.26177e-07
1.26131e-07
1.25643e-07
1.25318e-07
1.25124e-07
1.25141e-07
1.25486e-07
1.2558e-07
1.25443e-07
1.25561e-07
1.26269e-07
1.26736e-07
1.26821e-07
1.27022e-07
1.2737e-07
1.28043e-07
1.28596e-07
1.29151e-07
1.2993e-07
1.30642e-07
1.31329e-07
1.31951e-07
1.32622e-07
1.33716e-07
1.34808e-07
1.35599e-07
1.36347e-07
1.37754e-07
1.38668e-07
1.39827e-07
1.41329e-07
1.42639e-07
1.43614e-07
1.44928e-07
1.46081e-07
1.47997e-07
1.49322e-07
1.50888e-07
1.52217e-07
1.54853e-07
1.55582e-07
1.61092e-07
1.61271e-07
1.59002e-07
1.59882e-07
1.58756e-07
1.61562e-07
1.64677e-07
1.99381e-07
1.97551e-07
1.55982e-07
1.54426e-07
1.16748e-07
1.05717e-07
7.8163e-08
8.21441e-08
1.08631e-07
1.12229e-07
1.38322e-07
1.58663e-07
2.76771e-07
2.5478e-07
1.98431e-07
2.08075e-07
1.99928e-07
2.3819e-07
2.2206e-07
1.60817e-07
1.57751e-07
1.43602e-07
1.25684e-07
1.12118e-07
8.85732e-08
9.44766e-08
1.3285e-07
1.37752e-07
1.67675e-07
1.87645e-07
3.08893e-07
3.17113e-07
2.63843e-07
2.89149e-07
2.49083e-07
2.40855e-07
2.1763e-07
2.3751e-07
3.72812e-07
5.08245e-07
2.50485e-07
1.61296e-07
1.06062e-07
6.89367e-08
5.30992e-08
4.7881e-08
4.84688e-08
5.49654e-08
5.41238e-08
6.9089e-08
1.05212e-07
2.97404e-07
2.72239e-07
6.83955e-07
3.74318e-07
1.74937e-07
1.65793e-07
1.7413e-07
1.768e-07
1.81802e-07
1.87769e-07
1.93565e-07
1.9836e-07
2.02898e-07
2.07874e-07
2.12918e-07
2.17399e-07
2.21587e-07
2.26188e-07
2.31477e-07
2.37242e-07
2.43271e-07
2.48941e-07
2.54186e-07
2.59909e-07
2.65458e-07
2.68559e-07
2.73635e-07
2.80248e-07
2.87254e-07
2.94995e-07
3.03354e-07
3.11375e-07
3.18481e-07
3.2453e-07
3.29474e-07
3.33522e-07
3.37805e-07
3.43375e-07
3.50431e-07
3.58526e-07
3.67362e-07
3.76172e-07
3.8584e-07
3.93757e-07
4.00338e-07
4.06699e-07
4.13918e-07
4.22719e-07
4.32523e-07
4.4181e-07
4.49116e-07
4.54489e-07
4.60092e-07
4.68633e-07
4.81214e-07
4.95911e-07
5.08319e-07
5.15514e-07
5.18168e-07
5.18883e-07
5.19329e-07
5.20651e-07
5.25223e-07
5.36967e-07
5.58776e-07
5.78937e-07
5.77939e-07
5.65435e-07
5.64585e-07
5.9302e-07
6.29618e-07
6.22418e-07
5.82916e-07
5.73632e-07
5.97113e-07
5.99374e-07
5.70647e-07
5.82375e-07
6.52297e-07
5.64007e-07
3.81334e-07
2.10947e-07
9.13937e-08
1.04719e-07
1.63675e-07
1.13928e-09
1.41479e-09
6.02298e-09
4.44296e-09
4.61523e-09
7.99042e-09
1.29909e-08
1.78198e-08
2.55995e-08
4.61796e-08
2.7965e-08
1.35845e-08
9.38525e-09
7.79736e-09
7.04521e-09
6.78408e-09
6.68961e-09
6.26653e-09
5.87986e-09
5.88318e-09
6.17675e-09
6.24062e-09
5.96074e-09
5.63772e-09
5.89662e-09
6.937e-09
7.68203e-09
6.59839e-09
5.65091e-09
5.28555e-09
5.41342e-09
5.68118e-09
5.43056e-09
5.00132e-09
5.06771e-09
5.60827e-09
5.90661e-09
5.24626e-09
4.47836e-09
4.19932e-09
4.66902e-09
5.76489e-09
6.25043e-09
5.34598e-09
4.2913e-09
3.89665e-09
4.29623e-09
5.03431e-09
5.57231e-09
5.4881e-09
5.26734e-09
5.56433e-09
6.50023e-09
6.86178e-09
6.31535e-09
5.98546e-09
6.12638e-09
6.42906e-09
5.93967e-09
4.90443e-09
4.32539e-09
4.28029e-09
4.68911e-09
5.39758e-09
5.62646e-09
5.32573e-09
4.96467e-09
4.49098e-09
4.02479e-09
3.83526e-09
3.90029e-09
4.06261e-09
4.12313e-09
4.49569e-09
5.32933e-09
6.53576e-09
8.10726e-09
8.36626e-09
7.75405e-09
6.61931e-09
5.4641e-09
4.75017e-09
4.75473e-09
4.4082e-09
4.73705e-09
5.89704e-09
6.87512e-09
7.7651e-09
9.157e-09
1.01208e-08
8.14869e-09
7.62072e-09
3.35172e-08
5.76968e-09
9.84109e-09
9.87359e-09
7.57659e-09
7.41998e-09
6.77201e-09
7.99888e-09
6.93847e-09
7.35165e-09
6.81575e-09
6.8684e-09
6.14317e-09
4.42421e-09
3.21932e-09
2.49827e-09
2.05545e-09
1.9451e-09
1.99343e-09
2.23215e-09
3.52651e-09
6.41431e-09
7.09754e-09
7.04092e-09
7.42391e-09
6.74162e-09
9.28284e-09
1.13197e-08
9.85355e-09
8.79819e-09
8.10679e-09
1.04249e-08
1.53754e-08
2.59559e-08
2.79025e-08
1.65615e-08
1.078e-08
1.65064e-08
1.64106e-08
1.56853e-08
1.63596e-08
1.58827e-08
1.29874e-08
1.11831e-08
1.16473e-08
1.45472e-08
1.4916e-08
1.65055e-08
1.6038e-08
1.55147e-08
1.61888e-08
1.69986e-08
1.74066e-08
1.84259e-08
1.8977e-08
1.95235e-08
2.01722e-08
2.08406e-08
2.15093e-08
2.24582e-08
2.33353e-08
2.44002e-08
2.53652e-08
2.60705e-08
2.68826e-08
2.80415e-08
2.96426e-08
3.1142e-08
3.2312e-08
3.36831e-08
3.54427e-08
3.77348e-08
3.98965e-08
4.18732e-08
4.47837e-08
4.87786e-08
5.27863e-08
5.66911e-08
6.06867e-08
6.61526e-08
7.45941e-08
8.3127e-08
8.94724e-08
9.69193e-08
1.06984e-07
1.19375e-07
1.28222e-07
1.33469e-07
1.34152e-07
1.24146e-07
1.11821e-07
1.0043e-07
8.96132e-08
8.23405e-08
7.76712e-08
7.291e-08
6.71552e-08
6.03931e-08
5.46401e-08
5.05708e-08
4.72427e-08
4.45099e-08
4.26247e-08
4.0504e-08
3.79246e-08
3.56017e-08
3.36494e-08
3.22141e-08
3.11093e-08
2.98523e-08
2.85343e-08
2.71825e-08
2.62452e-08
2.56567e-08
2.49217e-08
2.39661e-08
2.29735e-08
2.23099e-08
2.18788e-08
2.1621e-08
2.12957e-08
2.06227e-08
1.99657e-08
1.96544e-08
1.94963e-08
1.93976e-08
1.93207e-08
1.909e-08
1.87077e-08
1.84893e-08
1.85472e-08
1.87755e-08
1.89024e-08
1.88978e-08
1.88632e-08
1.88976e-08
1.90407e-08
1.92702e-08
1.96526e-08
2.01279e-08
2.05049e-08
2.07601e-08
2.10106e-08
2.14556e-08
2.20577e-08
2.26433e-08
2.32443e-08
2.39512e-08
2.45334e-08
2.5131e-08
2.59716e-08
2.69031e-08
2.78662e-08
2.89157e-08
3.00786e-08
3.09481e-08
3.16239e-08