/*--------------------------------*- C++ -*----------------------------------*\
| =========                 |                                                 |
| \\      /  F ield         | OpenFOAM: The Open Source CFD Toolbox           |
|  \\    /   O peration     | Version:  v2006                                 |
|   \\  /    A nd           | Website:  www.openfoam.com                      |
|    \\/     M anipulation  |                                                 |
\*---------------------------------------------------------------------------*/
FoamFile
{
    version     2.0;
    format      ascii;
    class       volScalarField;
    location    "4.4";
    object      omega;
}
// * * * * * * * * * * * * * * * * * * * * * * * * * * * * * * * * * * * * * //

dimensions      [0 0 -1 0 0 0 0];


internalField   nonuniform List<scalar> 
33000
(
0.801353
0.801538
0.80179
0.802209
0.802926
0.80405
0.805693
0.807803
0.80994
0.811612
0.812672
0.813259
0.81357
0.813742
0.813856
0.813946
0.814022
0.814081
0.814122
0.814156
0.814193
0.814241
0.814299
0.814364
0.814434
0.814485
0.814522
0.814554
0.814587
0.814626
0.814653
0.814666
0.814674
0.814684
0.814694
0.814696
0.814663
0.814605
0.814547
0.8145
0.814465
0.814431
0.814374
0.814304
0.814227
0.814151
0.814082
0.814019
0.81396
0.813907
0.813861
0.813819
0.813769
0.813697
0.813577
0.813405
0.813192
0.812938
0.81263
0.812252
0.811811
0.811321
0.810785
0.810297
0.809864
0.809413
0.808946
0.808501
0.808114
0.807807
0.8076
0.807502
0.807538
0.807737
0.808187
0.808764
0.809249
0.809688
0.809916
0.810218
0.810508
0.81025
0.810151
0.80998
0.809909
0.809867
0.809867
0.809827
0.809679
0.809395
0.809027
0.808558
0.808073
0.807564
0.807083
0.806721
0.806424
0.806304
0.806386
0.80691
0.807492
0.807551
0.807346
0.807225
0.807191
0.807171
0.807145
0.807085
0.807026
0.80694
0.806844
0.806736
0.806585
0.806384
0.806157
0.80598
0.805929
0.806105
0.806328
0.806365
0.806344
0.806314
0.806342
0.806381
0.806423
0.806462
0.806504
0.806539
0.806575
0.806605
0.806628
0.806647
0.806657
0.806659
0.806657
0.806651
0.806646
0.806641
0.806636
0.806631
0.806622
0.806613
0.806602
0.806593
0.806583
0.80657
0.806557
0.806545
0.806533
0.806521
0.806506
0.806491
0.806475
0.806461
0.806449
0.806436
0.80642
0.806405
0.806391
0.806378
0.806365
0.806352
0.806338
0.806326
0.806314
0.806301
0.806287
0.806274
0.806262
0.80625
0.806237
0.806223
0.806211
0.806201
0.806192
0.806179
0.806167
0.806156
0.806147
0.806139
0.806131
0.806121
0.806111
0.806105
0.806099
0.806091
0.806081
0.806073
0.806068
0.806063
0.806055
0.806048
0.80604
0.806033
0.806025
0.806017
0.806008
0.806
0.80599
0.805979
0.805967
0.805955
0.805947
0.805939
0.80593
0.805919
0.805906
0.805895
0.805886
0.805878
0.805868
0.805857
0.805847
0.805838
0.80583
0.805818
0.805806
0.805793
0.80578
0.805769
0.805757
0.805742
0.805724
0.805704
0.805685
0.805666
0.805648
0.805627
0.805606
0.805587
0.805572
0.80556
0.805553
0.805547
0.805543
0.805541
0.805541
0.805544
0.805549
0.805554
0.80556
0.805564
0.805566
0.805565
0.805561
0.805554
0.805546
0.805536
0.805523
0.805508
0.80549
0.805472
0.805452
0.80543
0.805406
0.805382
0.805355
0.805328
0.805299
0.805269
0.805239
0.805209
0.805178
0.805147
0.805115
0.805084
0.805053
0.805022
0.80499
0.804958
0.804926
0.804895
0.804863
0.804831
0.804799
0.804767
0.804734
0.804702
0.80467
0.804638
0.804606
0.804574
0.804541
0.804509
0.804477
0.804445
0.804413
0.80438
0.804348
0.804316
0.804284
0.804252
0.80422
0.804189
0.804157
0.804126
0.804095
0.804064
0.804034
0.804004
0.803974
0.803944
0.803915
0.803886
0.803857
0.803829
0.803801
0.803773
0.803746
0.803719
0.803693
0.803666
0.80364
0.803615
0.803589
0.803565
0.80354
0.803516
0.803493
0.80347
0.803447
0.803424
0.803402
0.80338
0.803358
0.803337
0.803315
0.803294
0.803273
0.803252
0.803231
0.80321
0.803189
0.803168
0.803148
0.803127
0.803106
0.803085
0.803064
0.803043
0.803021
0.803
0.802979
0.802957
0.802936
0.802914
0.802893
0.802871
0.802849
0.802827
0.802805
0.802783
0.802761
0.802739
0.802716
0.802694
0.802672
0.802649
0.802627
0.802605
0.802582
0.80256
0.802537
0.802515
0.802492
0.80247
0.802448
0.802426
0.802403
0.802381
0.802359
0.802337
0.802315
0.802293
0.802271
0.80225
0.802228
0.802206
0.802185
0.802164
0.802143
0.802122
0.802101
0.80208
0.802059
0.802038
0.802018
0.801998
0.801978
0.801958
0.801938
0.801918
0.801898
0.801879
0.80186
0.801841
0.801822
0.801804
0.801787
0.801769
0.801752
0.801735
0.801719
0.801703
0.801687
0.801672
0.801657
0.801642
0.801628
0.801614
0.8016
0.801587
0.801574
0.801561
0.801549
0.801537
0.801525
0.801513
0.801501
0.80149
0.80148
0.801469
0.801459
0.801449
0.801434
0.801425
0.80142
0.801406
0.801409
0.801409
0.801438
0.801431
0.801441
0.801437
0.801439
0.801435
0.801434
0.801431
0.801429
0.801425
0.801422
0.801419
0.801411
0.801408
0.801407
0.801399
0.801406
0.801409
0.801432
0.801432
0.801439
0.80144
0.801441
0.80144
0.80144
0.801438
0.801436
0.80143
0.801427
0.801425
0.801418
0.801419
0.801411
0.801381
0.801378
0.801386
0.801362
0.801454
0.801505
0.801798
0.801838
0.801954
0.802006
0.802055
0.80209
0.802118
0.802139
0.802154
0.802166
0.802176
0.802183
0.802189
0.802194
0.802197
0.802199
0.802201
0.802202
0.802202
0.802202
0.802201
0.8022
0.802199
0.802197
0.802195
0.802193
0.802191
0.802188
0.802185
0.802181
0.802177
0.802173
0.802169
0.802164
0.802159
0.802154
0.802148
0.802143
0.802137
0.802131
0.802125
0.802119
0.802113
0.802107
0.802101
0.802095
0.802089
0.802082
0.802076
0.80207
0.802063
0.802057
0.80205
0.802043
0.802036
0.802029
0.802022
0.802015
0.802008
0.802001
0.801994
0.801987
0.801981
0.801974
0.801967
0.80196
0.801953
0.801947
0.80194
0.801933
0.801926
0.801919
0.801912
0.801905
0.801898
0.801891
0.801884
0.801876
0.801863
0.80186
0.801647
0.27177
0.565523
0.662089
0.709374
0.818762
0.941887
0.996441
1.00285
0.971102
0.906654
0.824995
0.746785
0.678313
0.617439
0.566968
0.532839
0.512012
0.493342
0.471375
0.450755
0.437131
0.429954
0.425652
0.422959
0.4263
0.43283
0.429781
0.410742
0.387861
0.374201
0.370578
0.364723
0.353976
0.346459
0.35066
0.359813
0.358639
0.336665
0.307926
0.295364
0.302383
0.316175
0.321435
0.307548
0.284687
0.267922
0.262078
0.26491
0.264994
0.256094
0.251146
0.260925
0.275786
0.282697
0.28063
0.276727
0.284396
0.30673
0.334157
0.355313
0.375364
0.405651
0.452502
0.517958
0.596158
0.67474
0.74856
0.807917
0.84611
0.874617
0.900087
0.925597
0.953426
0.985435
1.01985
1.04997
1.063
1.05639
1.03408
1.00303
0.941665
0.798251
0.556958
0.354493
0.19934
0.113815
0.0848901
0.0800496
0.0805041
0.0930633
0.117331
0.150892
0.192689
0.239645
0.28691
0.334122
0.369478
0.388305
0.389503
0.398699
0.375701
0.321057
0.234216
0.171762
0.155137
0.108966
0.0746507
0.0727334
0.07985
0.0751323
0.0715421
0.0753482
0.0782208
0.0841747
0.0887777
0.0884797
0.0805958
0.0741195
0.0839646
0.0913978
0.0857753
0.0789494
0.0853706
0.0751649
0.0658401
0.0664327
0.0634743
0.0618908
0.0614247
0.0589764
0.0576751
0.057211
0.0559149
0.0552336
0.0548319
0.0545119
0.0539711
0.0534119
0.0528812
0.0521664
0.0515288
0.0507644
0.0501434
0.0495433
0.0487392
0.0477999
0.047078
0.0466471
0.0462858
0.0457263
0.0448723
0.0439488
0.0433039
0.0429508
0.0426897
0.0422608
0.0416357
0.0410903
0.0408226
0.0406409
0.0402796
0.0398213
0.0395499
0.0394658
0.0393227
0.0389898
0.0387071
0.0386435
0.0386562
0.0384891
0.0381577
0.0379491
0.0379666
0.0380454
0.0379827
0.0377937
0.0376439
0.0376372
0.0377122
0.0377729
0.0377731
0.0377134
0.0376778
0.0376904
0.0376589
0.0375207
0.0373744
0.0373662
0.0374421
0.0374373
0.0373185
0.0371931
0.0371182
0.0370474
0.0369365
0.0368009
0.0366895
0.0365687
0.0363452
0.0360551
0.0358565
0.0358058
0.035802
0.035671
0.0353695
0.0349895
0.0347031
0.0346078
0.0345552
0.0343586
0.0340476
0.0338185
0.0336826
0.0335319
0.0332756
0.0329026
0.0326178
0.0324924
0.0324476
0.0324061
0.0321833
0.031768
0.031415
0.0312767
0.031259
0.0312153
0.0311147
0.0309504
0.030694
0.0304589
0.0303891
0.0304347
0.0304644
0.0303909
0.0301877
0.030044
0.0300965
0.0302534
0.0303466
0.0303711
0.0304025
0.0304667
0.0305319
0.0306144
0.0307157
0.0307639
0.030925
0.0312013
0.0313485
0.0313708
0.0314463
0.0316241
0.0318397
0.0319697
0.0321091
0.0322889
0.0323913
0.0324202
0.032511
0.0326825
0.0328205
0.0328107
0.0327804
0.0328509
0.0329982
0.0331406
0.033241
0.0332046
0.0330327
0.0329048
0.032921
0.0330412
0.0331684
0.0331903
0.0331111
0.0329815
0.0328955
0.0328817
0.0328616
0.0327608
0.0327193
0.0328056
0.0327863
0.0326228
0.0324079
0.0322495
0.0321981
0.0322196
0.0322089
0.0321236
0.031938
0.0317049
0.0315813
0.0315709
0.0315421
0.0314408
0.0312982
0.0311359
0.0310053
0.030913
0.030819
0.0306892
0.0305002
0.0303353
0.030212
0.0300777
0.029876
0.0296084
0.02946
0.0293376
0.0291712
0.0289449
0.0286945
0.0284817
0.0282944
0.028098
0.027852
0.0275988
0.0273944
0.0271962
0.0269762
0.0266957
0.0264091
0.0262264
0.0260329
0.0257713
0.0254594
0.0252292
0.0250449
0.0248326
0.0246056
0.024352
0.0240857
0.0238375
0.0236046
0.0233859
0.0231794
0.0229698
0.0227409
0.0225059
0.0223242
0.0221695
0.0220004
0.0218176
0.0216123
0.0214067
0.021252
0.0211144
0.0209728
0.0207875
0.0206101
0.0204993
0.0203859
0.0202578
0.0201104
0.0199757
0.019885
0.0197808
0.0196548
0.0195281
0.0194336
0.0193467
0.0192507
0.0191587
0.019049
0.018956
0.0188882
0.018813
0.0187345
0.0186497
0.0185481
0.0184604
0.018387
0.0183148
0.0182302
0.0181527
0.018093
0.0180311
0.0179683
0.0178956
0.0178092
0.0177334
0.0176734
0.0176203
0.0175691
0.0175076
0.0174454
0.0173772
0.0173114
0.0172655
0.0172054
0.0171221
0.0170517
0.0170219
0.0169594
0.0168919
0.0168467
0.0167937
0.0167279
0.0166568
0.0165944
0.0165305
0.0164845
0.016435
0.0163954
0.0163367
0.0163021
0.0162256
0.0161955
0.0161487
0.0161046
0.0160475
0.0159698
0.0159485
0.0158568
0.0157786
0.0157305
0.0155727
0.0154849
0.0156622
0.0154385
0.0154059
0.0153559
0.0144517
0.0145383
0.0159053
0.0150671
0.0167879
0.0191279
0.0240162
0.0238061
0.0188431
0.0183347
0.0167426
0.0163957
0.0159049
0.0158291
0.0155667
0.0154176
0.0151239
0.0150155
0.0142948
0.0143254
0.0150955
0.0144892
0.0154164
0.0166331
0.0188434
0.0185712
0.0161424
0.0159847
0.0152651
0.0149965
0.0148888
0.0146633
0.014462
0.0142021
0.0140152
0.0141505
0.0137082
0.0138656
0.0140529
0.0134286
0.0141238
0.0156088
0.0181359
0.030796
0.0404953
0.0665149
0.0627063
0.0469279
0.0367087
0.0298247
0.0255895
0.0227889
0.0209176
0.0196038
0.0186408
0.017919
0.0173604
0.0169065
0.0165384
0.0162522
0.0160332
0.0158583
0.0157041
0.0155587
0.0154231
0.0153061
0.0152089
0.0151303
0.0150624
0.0150026
0.0149448
0.0148793
0.0148217
0.0147636
0.014698
0.0146301
0.0145594
0.0144876
0.0144218
0.0143666
0.0143193
0.0142784
0.0142459
0.0142222
0.0141929
0.0141709
0.0141544
0.0141415
0.0141325
0.0141258
0.0141183
0.0141078
0.0140927
0.0140698
0.0140429
0.0140145
0.013986
0.0139602
0.013943
0.0139385
0.0139434
0.0139455
0.0139315
0.0138974
0.0138713
0.0138757
0.0139154
0.0139709
0.0139807
0.0139144
0.0138553
0.0138729
0.0139308
0.0139418
0.013855
0.0137788
0.0137828
0.0137971
0.0137676
0.0137248
0.0137418
0.0137947
0.0137731
0.0135453
0.0136598
0.0131856
0.00947846
0.121884
0.220192
0.280076
0.390134
0.538945
0.649484
0.688597
0.656785
0.584352
0.498115
0.419579
0.356425
0.308526
0.273007
0.24795
0.231873
0.221477
0.211559
0.200491
0.190564
0.18341
0.178148
0.173567
0.170376
0.171212
0.174633
0.173975
0.164057
0.149446
0.138773
0.1345
0.13162
0.127232
0.122259
0.121138
0.123114
0.121633
0.112724
0.100869
0.0935888
0.0943235
0.0981802
0.0992488
0.0940026
0.0846322
0.0771567
0.0733575
0.072353
0.0713664
0.0684491
0.0670249
0.0701576
0.0752373
0.0779193
0.0778966
0.0781579
0.08272
0.0921144
0.102336
0.108578
0.112324
0.118222
0.13054
0.151004
0.172518
0.192456
0.214482
0.236157
0.251174
0.260269
0.267672
0.277642
0.290574
0.306857
0.325822
0.347998
0.381444
0.422402
0.437236
0.428873
0.449563
0.407202
0.37415
0.349151
0.302926
0.222931
0.141404
0.0632182
0.0264382
0.0163128
0.0169116
0.0205506
0.026868
0.0344849
0.0423448
0.046507
0.047424
0.0457648
0.0448263
0.0457728
0.048256
0.0499958
0.0543266
0.0538765
0.0461299
0.0291219
0.0180877
0.0143978
0.0132218
0.00980171
0.00743073
0.00729553
0.00674866
0.00679173
0.00714045
0.00712921
0.00678622
0.00630551
0.00592179
0.00558594
0.00668565
0.00842529
0.0095873
0.00806317
0.00676157
0.0070014
0.0061883
0.00558481
0.00552768
0.00513038
0.00493148
0.00487584
0.00468677
0.00459552
0.00456783
0.0045322
0.00445957
0.00438232
0.00431802
0.00422293
0.00414676
0.00406447
0.00398829
0.00391304
0.00381884
0.00372174
0.00365006
0.00360043
0.00355101
0.00348323
0.00339802
0.00331609
0.00325713
0.00321865
0.00318394
0.00313538
0.00307835
0.00303253
0.00300715
0.00298659
0.00295321
0.00291243
0.00288499
0.00287319
0.0028592
0.00283127
0.00280467
0.00279517
0.00279285
0.00277851
0.00275217
0.00273329
0.00273218
0.00273649
0.00273058
0.00271682
0.00270567
0.00270388
0.00270823
0.00271327
0.0027158
0.00271467
0.00271407
0.00271513
0.00271175
0.0026997
0.00268635
0.00268341
0.00268808
0.00268794
0.00267984
0.00267034
0.00266154
0.00264995
0.00263513
0.00262184
0.00261439
0.00260645
0.00258741
0.00256058
0.0025402
0.00253242
0.00253026
0.00251794
0.00249161
0.00246136
0.00243937
0.00242896
0.00241937
0.00240048
0.00237573
0.00235653
0.00234114
0.00232415
0.00230166
0.00227244
0.00224885
0.00223509
0.00222631
0.00221819
0.00219946
0.00216993
0.00214394
0.00212926
0.00212129
0.00211346
0.00210374
0.0020905
0.00207185
0.00205426
0.00204592
0.0020449
0.00204438
0.00203791
0.00202325
0.00201201
0.00201284
0.00202208
0.00202995
0.00203351
0.00203462
0.00203605
0.00203941
0.00204552
0.00205263
0.0020572
0.00206966
0.00208975
0.00210201
0.0021056
0.00211221
0.00212536
0.00214158
0.00215317
0.00216348
0.0021753
0.00218417
0.00219097
0.00220216
0.00221488
0.00222103
0.00221887
0.00221899
0.00222637
0.00223823
0.00224882
0.00225506
0.00225158
0.00223994
0.00223242
0.00223501
0.00224316
0.00224955
0.00224924
0.00224478
0.00223852
0.00223313
0.00222931
0.00222549
0.00221911
0.00221693
0.00222241
0.00221996
0.00220766
0.00219358
0.00218431
0.00218076
0.00218019
0.00217696
0.00216993
0.00215817
0.00214427
0.00213642
0.002134
0.00212898
0.00212052
0.00211189
0.0021028
0.00209383
0.00208515
0.00207657
0.00206698
0.00205555
0.00204483
0.002034
0.00202268
0.00200959
0.00199306
0.00198232
0.00197201
0.00195918
0.00194409
0.00192852
0.00191362
0.00189963
0.00188557
0.00186982
0.00185404
0.00183976
0.00182533
0.00181011
0.00179305
0.0017764
0.00176405
0.00175003
0.0017335
0.0017158
0.00170171
0.00168947
0.00167603
0.00166183
0.00164709
0.00163245
0.00161843
0.00160501
0.00159242
0.00158071
0.00156906
0.00155705
0.00154509
0.00153486
0.00152585
0.00151684
0.00150726
0.00149716
0.00148751
0.00147979
0.00147256
0.00146531
0.00145707
0.0014493
0.00144365
0.00143789
0.00143196
0.00142574
0.0014199
0.00141526
0.00141033
0.00140539
0.00140075
0.0013967
0.0013923
0.0013881
0.00138453
0.00138036
0.00137682
0.00137378
0.00137033
0.00136721
0.00136394
0.00136014
0.00135679
0.00135381
0.00135108
0.00134802
0.00134514
0.00134253
0.00133978
0.00133741
0.00133486
0.00133188
0.00132911
0.00132684
0.00132484
0.00132279
0.00132018
0.00131782
0.00131544
0.00131301
0.00131103
0.00130866
0.00130599
0.0013037
0.00130213
0.00129958
0.00129717
0.00129525
0.00129313
0.00129092
0.00128842
0.00128629
0.00128391
0.00128219
0.00128003
0.00127848
0.00127611
0.00127535
0.00127251
0.00127108
0.0012705
0.00126863
0.0012657
0.00126157
0.00126095
0.0012563
0.00125384
0.0012558
0.00125086
0.00124704
0.00125505
0.00123482
0.00124188
0.00126847
0.00127485
0.00129668
0.00132311
0.00136249
0.00139556
0.00138341
0.00147706
0.00143484
0.00132824
0.0013071
0.00127996
0.00126565
0.00125806
0.0012535
0.00124926
0.0012335
0.0012315
0.00124623
0.00124267
0.00125357
0.00126646
0.00128253
0.00129394
0.0012803
0.00130848
0.00128698
0.00125214
0.00124035
0.00123155
0.00121646
0.00121946
0.00121591
0.00121734
0.00122246
0.00122227
0.00125445
0.00123849
0.00130257
0.00136653
0.00151128
0.0016424
0.00175636
0.00229678
0.0028936
0.00320748
0.00459005
0.00361593
0.00259567
0.00209878
0.00180189
0.00163162
0.00152478
0.00145413
0.00140368
0.00136636
0.00133836
0.00131675
0.00129958
0.00128605
0.00127534
0.00126654
0.00125892
0.00125214
0.0012461
0.00124114
0.00123713
0.00123405
0.00123169
0.00122968
0.00122777
0.00122573
0.00122357
0.00122127
0.00121894
0.0012168
0.00121476
0.00121288
0.00121114
0.00120966
0.00120838
0.0012071
0.00120576
0.0012044
0.00120321
0.00120237
0.00120168
0.00120132
0.00120115
0.00120098
0.00120066
0.00120013
0.00119948
0.0011989
0.00119841
0.00119788
0.00119717
0.00119625
0.00119535
0.00119476
0.00119467
0.00119508
0.00119564
0.00119587
0.00119581
0.00119614
0.00119672
0.00119744
0.00119794
0.00119719
0.00119639
0.0011967
0.00119754
0.00119778
0.00119662
0.00119554
0.00119616
0.00119665
0.00119576
0.00119499
0.00119616
0.00119677
0.00119587
0.00119808
0.001212
0.00123585
0.00124606
0.00114825
0.0606936
0.116883
0.167708
0.235326
0.301442
0.343643
0.344392
0.309358
0.259684
0.212321
0.174552
0.146766
0.12682
0.11242
0.10221
0.0951392
0.0899947
0.0853052
0.0805781
0.0763511
0.0728742
0.0698379
0.0671376
0.0652639
0.0649315
0.0657768
0.0653768
0.0616017
0.0557091
0.0507703
0.0481379
0.0467848
0.0454125
0.0435018
0.0419353
0.0412834
0.0402501
0.0379757
0.035205
0.0329515
0.0319593
0.0317089
0.0313756
0.0301962
0.0281679
0.0259581
0.0240057
0.0226304
0.0217148
0.0209618
0.0206916
0.0211779
0.0221072
0.0227787
0.0230736
0.0238397
0.0258219
0.0288552
0.0318678
0.0339388
0.0357387
0.0384545
0.0428734
0.0486494
0.0549749
0.0624434
0.0722719
0.0842183
0.0963468
0.105018
0.109905
0.113255
0.11665
0.12121
0.128174
0.137637
0.148771
0.159603
0.169833
0.179609
0.192073
0.197291
0.199366
0.210145
0.203625
0.196322
0.182782
0.168247
0.136588
0.0936279
0.0475944
0.0245049
0.0143868
0.0112211
0.00960226
0.00914249
0.00899282
0.00905324
0.00849597
0.00812071
0.00808913
0.00891432
0.0107465
0.0135896
0.0169453
0.0208118
0.0226943
0.0215957
0.0177991
0.0108379
0.00596815
0.00451962
0.00339777
0.00273705
0.00241468
0.00208388
0.00195291
0.00203809
0.0021513
0.00222976
0.00226071
0.00238133
0.00253497
0.00284439
0.00312387
0.00317474
0.00256841
0.00212324
0.00202058
0.00187211
0.00178165
0.00174548
0.00166009
0.00160007
0.00158998
0.00158452
0.00157942
0.00157537
0.00157025
0.00155187
0.00153588
0.00152638
0.00151662
0.00150938
0.00150038
0.00148905
0.00147909
0.00147186
0.00146569
0.00145933
0.00145246
0.00144593
0.00144006
0.00143482
0.00143047
0.00142655
0.00142248
0.00141867
0.00141583
0.00141396
0.0014122
0.00140962
0.00140659
0.00140437
0.00140344
0.00140257
0.00140067
0.00139881
0.00139822
0.00139821
0.00139736
0.00139594
0.00139566
0.00139674
0.00139734
0.00139702
0.00139697
0.00139805
0.00139979
0.00140073
0.0014008
0.0014009
0.00140147
0.00140249
0.00140359
0.00140403
0.00140325
0.00140205
0.0014012
0.0014004
0.00139962
0.0013992
0.00139824
0.00139552
0.00139167
0.00138853
0.00138708
0.00138606
0.0013835
0.00137859
0.00137313
0.00136936
0.00136722
0.00136449
0.00135942
0.00135272
0.00134623
0.00134048
0.00133606
0.00133213
0.00132673
0.00131964
0.00131235
0.00130675
0.00130145
0.00129448
0.00128703
0.00128038
0.00127397
0.00126749
0.00126143
0.00125531
0.00124892
0.00124199
0.00123459
0.001228
0.00122287
0.00121835
0.0012132
0.0012073
0.00120123
0.00119595
0.00119211
0.00118817
0.00118318
0.00117854
0.00117548
0.00117317
0.00117034
0.00116706
0.00116392
0.00116153
0.0011602
0.00115906
0.00115756
0.00115595
0.00115482
0.00115411
0.00115326
0.00115245
0.00115236
0.00115269
0.00115269
0.00115204
0.00115138
0.00115146
0.00115192
0.00115223
0.00115222
0.00115188
0.00115122
0.00115058
0.00115044
0.00115034
0.00115014
0.00115001
0.00114986
0.00114926
0.00114826
0.00114765
0.00114761
0.00114734
0.00114622
0.00114461
0.00114367
0.00114362
0.00114343
0.00114243
0.00114121
0.0011404
0.00113985
0.0011389
0.00113765
0.00113676
0.00113611
0.00113545
0.00113434
0.00113278
0.0011316
0.001131
0.00113027
0.00112928
0.00112834
0.00112717
0.00112563
0.00112453
0.00112379
0.00112275
0.00112159
0.00112048
0.00111931
0.00111814
0.00111688
0.00111526
0.00111376
0.0011126
0.00111137
0.00110965
0.00110793
0.00110655
0.00110523
0.00110372
0.00110194
0.00110007
0.00109846
0.00109693
0.00109523
0.00109332
0.00109165
0.00109005
0.00108817
0.00108643
0.00108482
0.00108309
0.00108144
0.00107974
0.00107792
0.00107631
0.0010748
0.00107323
0.00107161
0.00107006
0.00106862
0.00106713
0.00106566
0.00106431
0.00106309
0.00106188
0.0010607
0.00105954
0.00105838
0.00105729
0.00105627
0.0010553
0.00105434
0.00105345
0.00105272
0.00105199
0.00105124
0.00105056
0.00104979
0.00104904
0.00104852
0.00104805
0.00104757
0.00104701
0.00104642
0.00104591
0.0010455
0.00104516
0.00104479
0.00104433
0.00104385
0.00104353
0.00104325
0.00104289
0.00104246
0.00104208
0.00104179
0.00104149
0.00104116
0.00104079
0.00104041
0.00104008
0.0010398
0.00103949
0.00103909
0.00103872
0.00103842
0.00103811
0.00103777
0.00103739
0.00103704
0.00103671
0.00103635
0.001036
0.00103564
0.00103529
0.00103493
0.00103453
0.00103413
0.00103377
0.00103344
0.00103305
0.0010327
0.00103232
0.00103192
0.00103151
0.00103116
0.00103075
0.00103041
0.00102997
0.00102963
0.00102921
0.00102893
0.00102842
0.00102818
0.00102746
0.00102717
0.00102706
0.00102681
0.00102676
0.00102672
0.00102643
0.00102597
0.00102528
0.00103227
0.00103171
0.00103688
0.00104143
0.00106561
0.00106103
0.00103892
0.00103892
0.00103685
0.00103503
0.00102858
0.0010283
0.00102451
0.00102449
0.00102539
0.00102435
0.00102408
0.00102899
0.00102791
0.00102851
0.00103072
0.00103577
0.00104286
0.00104054
0.0010286
0.00102857
0.00102684
0.00102511
0.00102069
0.00101999
0.00102007
0.00101912
0.00102048
0.00101961
0.00102005
0.00102114
0.00103849
0.00102739
0.00102272
0.00106855
0.00107991
0.00115181
0.00119193
0.00133517
0.00130081
0.00117279
0.00118226
0.00116623
0.00114252
0.00114167
0.00114438
0.00111201
0.00114182
0.00111162
0.00108072
0.00106319
0.00105132
0.00104295
0.00103668
0.00103184
0.00102803
0.00102496
0.00102246
0.0010204
0.00101871
0.00101732
0.00101619
0.00101528
0.00101455
0.00101395
0.00101344
0.00101304
0.0010127
0.00101242
0.00101227
0.00101217
0.00101211
0.00101208
0.00101208
0.00101207
0.00101205
0.00101201
0.00101195
0.00101188
0.0010118
0.00101174
0.00101171
0.00101171
0.00101174
0.00101178
0.00101183
0.00101186
0.00101186
0.00101184
0.00101183
0.00101183
0.00101185
0.00101189
0.0010119
0.00101187
0.00101181
0.00101176
0.00101177
0.00101182
0.00101187
0.00101188
0.00101182
0.00101172
0.0010116
0.00101149
0.0010114
0.00101136
0.00101143
0.00101159
0.00101172
0.00101163
0.0010114
0.00101133
0.00101157
0.00101183
0.00101163
0.00101117
0.00101104
0.00101117
0.00101111
0.00101083
0.00101093
0.0010113
0.00101227
0.00101733
0.00103904
0.00106823
0.00109266
0.00104233
0.0332318
0.0680421
0.0988456
0.126281
0.140943
0.143783
0.134267
0.115418
0.0951798
0.0786001
0.0667905
0.0583888
0.0521453
0.047352
0.0436931
0.0409265
0.0387585
0.0367987
0.0348069
0.0328573
0.0310769
0.0296183
0.028518
0.0277795
0.0273144
0.0269656
0.026306
0.0249396
0.0230713
0.0213719
0.0201983
0.019422
0.0188082
0.0181386
0.0173957
0.0167469
0.0161548
0.0155637
0.0149705
0.0143152
0.0135665
0.012858
0.0124274
0.0122157
0.0120093
0.0115667
0.0107829
0.0099982
0.009442
0.0091628
0.00910178
0.0091281
0.0091647
0.00924427
0.00941126
0.00973624
0.0102929
0.0111188
0.0121132
0.0130787
0.01402
0.0150798
0.0164319
0.0181333
0.0202493
0.0229972
0.0266366
0.0308844
0.034939
0.0382939
0.0414749
0.0445185
0.0478634
0.0512646
0.054699
0.0584591
0.0628116
0.068375
0.0750273
0.0825326
0.0902806
0.0977116
0.104697
0.112008
0.11743
0.121133
0.126448
0.128423
0.125046
0.119104
0.109189
0.0952888
0.07182
0.0474544
0.0279793
0.0160822
0.0108512
0.00751956
0.00566461
0.0045646
0.00407281
0.00387796
0.00411902
0.0047786
0.00598415
0.00795988
0.0106638
0.0139646
0.0174847
0.0200064
0.0200362
0.0166621
0.00970489
0.00556561
0.00410268
0.0030992
0.00249357
0.00213264
0.00180444
0.00170198
0.00178752
0.00192539
0.00204335
0.00210507
0.0022339
0.00239871
0.0026668
0.00287945
0.00286799
0.00231552
0.00190372
0.0017819
0.00165533
0.0015755
0.00154596
0.00154739
0.00149248
0.00143567
0.00142408
0.00141617
0.00141422
0.00141239
0.00140306
0.00139558
0.00139306
0.00138843
0.00138437
0.00138099
0.00137812
0.00137608
0.00137401
0.00137075
0.00136779
0.00136593
0.00136513
0.00136487
0.00136393
0.00136199
0.00135997
0.00135896
0.00135898
0.00135867
0.00135757
0.00135644
0.00135622
0.00135629
0.00135535
0.00135409
0.00135414
0.00135504
0.0013554
0.001355
0.00135465
0.00135526
0.00135622
0.00135677
0.00135752
0.00135887
0.0013601
0.00136013
0.00135954
0.00135993
0.00136137
0.00136262
0.00136371
0.00136444
0.0013638
0.00136191
0.0013601
0.00135961
0.00135995
0.00136009
0.00135959
0.00135786
0.00135489
0.00135163
0.00134942
0.00134811
0.00134668
0.00134385
0.00133958
0.00133554
0.00133242
0.00133008
0.00132651
0.00132091
0.00131502
0.00131032
0.00130682
0.00130299
0.00129787
0.00129104
0.00128415
0.00127944
0.00127533
0.00126988
0.00126346
0.00125657
0.00124947
0.00124326
0.00123855
0.00123362
0.00122752
0.00122058
0.00121374
0.00120755
0.00120211
0.00119729
0.00119278
0.00118796
0.0011824
0.00117658
0.00117165
0.00116764
0.00116375
0.0011595
0.00115565
0.00115248
0.00114909
0.00114543
0.00114252
0.00114042
0.00113833
0.00113602
0.00113398
0.00113202
0.00112979
0.00112796
0.00112682
0.00112607
0.00112536
0.00112454
0.00112362
0.00112244
0.00112108
0.00112031
0.00112015
0.00111973
0.00111867
0.00111772
0.00111721
0.00111692
0.00111671
0.00111601
0.00111488
0.001114
0.0011134
0.00111277
0.00111228
0.00111202
0.0011116
0.00111062
0.00110942
0.00110837
0.00110763
0.00110721
0.00110681
0.00110626
0.00110552
0.00110475
0.00110386
0.00110263
0.00110178
0.00110166
0.00110152
0.00110067
0.00109938
0.00109832
0.00109784
0.0010976
0.00109692
0.00109602
0.00109526
0.00109444
0.0010936
0.00109299
0.00109226
0.00109136
0.00109056
0.00108987
0.00108917
0.00108841
0.00108747
0.0010864
0.00108556
0.00108482
0.00108397
0.00108297
0.0010818
0.00108079
0.00107994
0.00107895
0.00107779
0.00107668
0.00107565
0.00107459
0.00107342
0.00107217
0.00107108
0.0010701
0.00106899
0.00106773
0.00106649
0.00106529
0.00106425
0.00106322
0.00106204
0.00106081
0.00105971
0.00105868
0.00105766
0.0010566
0.00105552
0.00105456
0.00105369
0.00105268
0.00105172
0.00105087
0.00105003
0.00104924
0.00104847
0.00104772
0.00104697
0.00104629
0.00104565
0.00104499
0.0010444
0.00104387
0.00104334
0.00104286
0.00104236
0.00104183
0.00104138
0.001041
0.00104066
0.00104029
0.00103991
0.00103952
0.00103912
0.00103883
0.00103859
0.00103831
0.00103797
0.00103765
0.00103741
0.00103713
0.00103686
0.00103659
0.00103629
0.00103602
0.00103578
0.00103552
0.00103522
0.00103492
0.00103466
0.00103439
0.00103412
0.00103382
0.00103352
0.00103321
0.00103294
0.00103264
0.00103235
0.00103202
0.00103173
0.00103144
0.00103111
0.0010308
0.00103045
0.00103015
0.0010298
0.00102951
0.00102915
0.00102885
0.00102852
0.00102822
0.00102783
0.0010275
0.00102711
0.00102682
0.00102649
0.00102622
0.00102574
0.00102547
0.00102497
0.0010246
0.00102467
0.00102435
0.00102578
0.00102453
0.00102392
0.00102363
0.00102328
0.00103007
0.00103027
0.00103529
0.00104029
0.00106608
0.00106089
0.00103661
0.00103628
0.00103316
0.00103056
0.00102277
0.00102185
0.00101936
0.00101888
0.00101983
0.00102039
0.00102057
0.0010266
0.00102614
0.00102916
0.00103122
0.00104445
0.00104105
0.00103181
0.00102703
0.00102514
0.0010248
0.00102235
0.00101745
0.0010166
0.00101695
0.00101569
0.00101807
0.00101689
0.00101542
0.00101788
0.00103653
0.00103262
0.00106496
0.00107247
0.0011249
0.00116643
0.00123523
0.00135167
0.00131272
0.0011759
0.0011776
0.00115032
0.00111302
0.00107782
0.00105256
0.00102516
0.00102489
0.00103474
0.00103768
0.0010386
0.0010375
0.00103486
0.00103211
0.00102952
0.00102707
0.00102474
0.00102252
0.00102051
0.00101876
0.00101723
0.00101587
0.0010147
0.00101373
0.00101295
0.00101233
0.00101183
0.00101136
0.00101088
0.00101042
0.00101004
0.00100972
0.00100951
0.00100942
0.00100938
0.00100937
0.00100937
0.00100937
0.00100933
0.00100926
0.00100918
0.0010091
0.00100904
0.00100901
0.00100901
0.00100904
0.00100908
0.00100913
0.00100916
0.00100917
0.00100916
0.00100914
0.00100914
0.00100917
0.00100923
0.00100928
0.00100929
0.00100924
0.00100919
0.00100918
0.00100925
0.00100934
0.00100936
0.00100928
0.00100913
0.00100899
0.00100888
0.00100883
0.00100882
0.00100882
0.00100888
0.00100893
0.00100889
0.00100878
0.00100877
0.00100899
0.00100923
0.00100905
0.00100854
0.00100836
0.00100861
0.00100868
0.00100822
0.00100808
0.00100846
0.00100865
0.00100931
0.0010146
0.00103676
0.0010662
0.00109119
0.0010408
0.022235
0.0456158
0.0644699
0.0780714
0.0787223
0.0696224
0.0571945
0.045873
0.0374083
0.0318307
0.0283523
0.0259248
0.0239322
0.0222198
0.0208728
0.0199169
0.0192339
0.0185531
0.017706
0.016741
0.0158243
0.0151287
0.0147151
0.0144966
0.0142954
0.0139425
0.0134323
0.0127944
0.0120731
0.0114683
0.011077
0.0108391
0.0106487
0.0103523
0.00992783
0.00950344
0.00923484
0.0092148
0.00928219
0.00905724
0.00845794
0.00781827
0.00746502
0.00747436
0.00763324
0.00769339
0.00751215
0.00714822
0.00677528
0.00650838
0.00639748
0.00636779
0.00633864
0.00635012
0.00643854
0.00654939
0.00664008
0.00680443
0.0071862
0.00775423
0.0082914
0.00861276
0.00883077
0.00915705
0.00968469
0.0103706
0.0112962
0.0125152
0.0139096
0.0152243
0.0161219
0.0166023
0.017248
0.018632
0.0210192
0.0241554
0.0278289
0.031962
0.0363943
0.0406799
0.0446654
0.0490769
0.0542305
0.0598458
0.065394
0.0705563
0.0755192
0.0800243
0.0833239
0.0853855
0.087827
0.0862367
0.0833825
0.0778627
0.0694583
0.0556041
0.0406272
0.0270876
0.0158763
0.0105691
0.00723992
0.00525938
0.00420494
0.0038427
0.00376522
0.00404604
0.00472411
0.00585614
0.00781536
0.0105308
0.0138978
0.0172431
0.0199952
0.019883
0.0163703
0.00949133
0.00544563
0.00401365
0.0030385
0.00247035
0.00211337
0.00180109
0.00170573
0.00178763
0.00192174
0.00204167
0.00211993
0.00226794
0.00244831
0.00272283
0.00295025