/*--------------------------------*- C++ -*----------------------------------*\
| =========                 |                                                 |
| \\      /  F ield         | OpenFOAM: The Open Source CFD Toolbox           |
|  \\    /   O peration     | Version:  v2006                                 |
|   \\  /    A nd           | Website:  www.openfoam.com                      |
|    \\/     M anipulation  |                                                 |
\*---------------------------------------------------------------------------*/
FoamFile
{
    version     2.0;
    format      ascii;
    class       surfaceScalarField;
    location    "4.4";
    object      phi;
}
// * * * * * * * * * * * * * * * * * * * * * * * * * * * * * * * * * * * * * //

dimensions      [0 3 -1 0 0 0 0];
oriented        oriented;


internalField   nonuniform List<scalar> 
65390
(
8.22209e-05
4.97152e-07
8.63463e-05
-4.12822e-06
0.000104016
-1.76724e-05
0.000126855
-2.2841e-05
0.000144183
-1.733e-05
0.000146051
-1.86899e-06
0.000134463
1.15868e-05
0.000119429
1.50331e-05
0.000106485
1.29428e-05
9.7515e-05
8.96981e-06
9.11673e-05
6.34736e-06
8.64641e-05
4.70283e-06
8.28415e-05
3.62233e-06
8.00251e-05
2.81606e-06
7.77065e-05
2.31838e-06
7.54802e-05
2.22616e-06
7.30829e-05
2.39712e-06
7.07699e-05
2.31284e-06
6.88618e-05
1.90804e-06
6.73379e-05
1.52377e-06
6.60038e-05
1.33394e-06
6.45835e-05
1.42019e-06
6.29357e-05
1.64767e-06
6.10968e-05
1.83881e-06
5.90301e-05
2.06665e-06
5.70875e-05
1.94251e-06
5.54708e-05
1.61656e-06
5.41322e-05
1.33855e-06
5.2717e-05
1.41513e-06
5.09594e-05
1.75747e-06
4.90334e-05
1.92595e-06
4.75034e-05
1.52988e-06
4.63498e-05
1.15352e-06
4.51831e-05
1.16667e-06
4.35572e-05
1.62585e-06
4.14327e-05
2.12436e-06
3.93284e-05
2.10422e-06
3.78304e-05
1.49792e-06
3.67695e-05
1.06086e-06
3.57421e-05
1.02729e-06
3.42861e-05
1.45593e-06
3.24272e-05
1.85877e-06
3.06104e-05
1.81666e-06
2.9058e-05
1.55231e-06
2.77917e-05
1.26616e-06
2.66557e-05
1.13587e-06
2.53862e-05
1.26937e-06
2.39383e-05
1.44771e-06
2.24865e-05
1.45163e-06
2.12203e-05
1.26609e-06
2.00139e-05
1.20613e-06
1.86055e-05
1.40822e-06
1.69097e-05
1.6957e-06
1.50324e-05
1.87703e-06
1.32622e-05
1.77003e-06
1.18981e-05
1.36397e-06
1.07684e-05
1.12948e-06
9.5269e-06
1.24133e-06
8.09216e-06
1.43457e-06
6.82638e-06
1.26561e-06
6.03608e-06
7.90123e-07
5.78003e-06
2.5589e-07
5.89236e-06
-1.12488e-07
6.06008e-06
-1.67872e-07
6.23022e-06
-1.70275e-07
6.64543e-06
-4.15337e-07
7.58674e-06
-9.4143e-07
9.2356e-06
-1.64896e-06
1.15608e-05
-2.32533e-06
1.44178e-05
-2.85705e-06
1.75649e-05
-3.1472e-06
2.07705e-05
-3.20564e-06
2.35677e-05
-2.79725e-06
2.53245e-05
-1.75692e-06
2.53233e-05
1.16765e-09
2.24766e-05
2.84671e-06
1.70657e-05
5.41079e-06
9.04773e-06
8.01797e-06
3.91669e-06
5.13102e-06
2.86746e-06
1.04922e-06
1.43689e-06
1.43056e-06
1.66653e-06
-2.29647e-07
1.01464e-06
6.51895e-07
1.13904e-06
-1.24397e-07
9.04282e-07
2.34765e-07
3.09971e-07
5.94327e-07
-5.16005e-08
3.61592e-07
-3.6916e-07
3.17578e-07
-4.07481e-07
3.83341e-08
-3.35417e-07
-7.20574e-08
3.7707e-08
-3.73125e-07
7.24359e-07
-6.8666e-07
1.74036e-06
-1.01602e-06
3.304e-06
-1.56366e-06
5.50337e-06
-2.19941e-06
8.04637e-06
-2.54303e-06
1.09993e-05
-2.95295e-06
1.38587e-05
-2.85948e-06
1.58272e-05
-1.9685e-06
1.64475e-05
-6.20327e-07
1.61137e-05
3.33762e-07
1.52848e-05
8.28799e-07
1.42573e-05
1.0275e-06
1.33499e-05
9.07351e-07
1.2321e-05
1.02893e-06
1.14973e-05
8.23595e-07
1.09353e-05
5.6205e-07
1.0312e-05
6.23265e-07
9.55737e-06
7.54533e-07
8.82104e-06
7.36287e-07
8.11584e-06
7.05141e-07
7.43275e-06
6.83037e-07
6.87991e-06
5.52782e-07
6.47523e-06
4.04628e-07
6.31308e-06
1.62093e-07
6.31727e-06
-4.24693e-09
6.45161e-06
-1.34388e-07
6.28692e-06
1.6465e-07
5.69298e-06
5.93897e-07
4.95577e-06
7.37171e-07
4.15836e-06
7.97373e-07
3.41545e-06
7.42883e-07
2.53029e-06
8.85133e-07
1.73338e-06
7.96886e-07
1.03864e-06
6.94718e-07
3.37045e-07
7.01579e-07
-3.36678e-07
6.73705e-07
-1.00333e-06
6.66638e-07
-1.6696e-06
6.6625e-07
-2.30247e-06
6.32848e-07
-2.91415e-06
6.11664e-07
-3.51561e-06
6.0144e-07
-4.09092e-06
5.75296e-07
-4.65676e-06
5.65824e-07
-5.21356e-06
5.56782e-07
-5.76341e-06
5.49841e-07
-6.30142e-06
5.38e-07
-6.82711e-06
5.25678e-07
-7.3417e-06
5.14581e-07
-7.83993e-06
4.98224e-07
-8.32378e-06
4.83843e-07
-8.7925e-06
4.68714e-07
-9.25236e-06
4.59857e-07
-9.69999e-06
4.47631e-07
-1.01321e-05
4.32139e-07
-1.05446e-05
4.12518e-07
-1.09459e-05
4.01224e-07
-1.13382e-05
3.92389e-07
-1.17207e-05
3.82458e-07
-1.20896e-05
3.68914e-07
-1.24395e-05
3.49936e-07
-1.27744e-05
3.34899e-07
-1.30998e-05
3.25346e-07
-1.34158e-05
3.16051e-07
-1.3722e-05
3.06148e-07
-1.40147e-05
2.92746e-07
-1.42916e-05
2.76911e-07
-1.45562e-05
2.64586e-07
-1.48124e-05
2.56163e-07
-1.50591e-05
2.46691e-07
-1.52907e-05
2.31618e-07
-1.55082e-05
2.17433e-07
-1.5715e-05
2.06752e-07
-1.59132e-05
1.98213e-07
-1.60993e-05
1.86122e-07
-1.62691e-05
1.69776e-07
-1.64255e-05
1.56352e-07
-1.65728e-05
1.47296e-07
-1.67114e-05
1.38575e-07
-1.68361e-05
1.2467e-07
-1.6944e-05
1.07911e-07
-1.70388e-05
9.47379e-08
-1.71239e-05
8.51026e-08
-1.72001e-05
7.6171e-08
-1.72647e-05
6.46515e-08
-1.73142e-05
4.94166e-08
-1.73486e-05
3.43743e-08
-1.7372e-05
2.33939e-08
-1.73861e-05
1.41267e-08
-1.73886e-05
2.48016e-09
-1.73792e-05
-9.34778e-09
-1.73563e-05
-2.29337e-08
-1.73215e-05
-3.4809e-08
-1.72785e-05
-4.29922e-08
-1.72261e-05
-5.23873e-08
-1.71591e-05
-6.70011e-08
-1.70757e-05
-8.32955e-08
-1.69818e-05
-9.39384e-08
-1.68801e-05
-1.01699e-07
-1.67676e-05
-1.12431e-07
-1.66439e-05
-1.2373e-07
-1.65079e-05
-1.35993e-07
-1.63601e-05
-1.47763e-07
-1.6202e-05
-1.58152e-07
-1.60312e-05
-1.70722e-07
-1.58476e-05
-1.83634e-07
-1.56538e-05
-1.9378e-07
-1.54501e-05
-2.0366e-07
-1.52348e-05
-2.15339e-07
-1.50063e-05
-2.28496e-07
-1.47618e-05
-2.44468e-07
-1.45042e-05
-2.5762e-07
-1.42381e-05
-2.66125e-07
-1.39643e-05
-2.73771e-07
-1.36794e-05
-2.84904e-07
-1.33806e-05
-2.98795e-07
-1.30663e-05
-3.14347e-07
-1.27377e-05
-3.28577e-07
-1.23999e-05
-3.3782e-07
-1.2055e-05
-3.44832e-07
-1.16999e-05
-3.55063e-07
-1.13308e-05
-3.69112e-07
-1.09492e-05
-3.81641e-07
-1.05621e-05
-3.87074e-07
-1.01724e-05
-3.89675e-07
-9.7724e-06
-3.99926e-07
-9.36193e-06
-4.10437e-07
-8.94203e-06
-4.19866e-07
-8.51336e-06
-4.28621e-07
-8.08413e-06
-4.29194e-07
-7.66008e-06
-4.24002e-07
-7.23436e-06
-4.25663e-07
-6.80302e-06
-4.31293e-07
-6.36502e-06
-4.37947e-07
-5.92356e-06
-4.41396e-07
-5.4862e-06
-4.37305e-07
-5.05888e-06
-4.2726e-07
-4.63598e-06
-4.22832e-07
-4.21428e-06
-4.21645e-07
-3.79687e-06
-4.17339e-07
-3.38368e-06
-4.13132e-07
-2.97406e-06
-4.09553e-07
-2.57662e-06
-3.97367e-07
-2.19259e-06
-3.83959e-07
-1.81525e-06
-3.77279e-07
-1.44585e-06
-3.69325e-07
-1.08574e-06
-3.60042e-07
-7.34585e-07
-3.5109e-07
-3.95652e-07
-3.38865e-07
-6.98175e-08
-3.25768e-07
2.45868e-07
-3.15619e-07
5.52462e-07
-3.06529e-07
8.47451e-07
-2.94923e-07
1.12968e-06
-2.82165e-07
1.40281e-06
-2.73068e-07
1.6686e-06
-2.65719e-07
1.9282e-06
-2.59537e-07
2.17673e-06
-2.48475e-07
2.41322e-06
-2.36425e-07
2.64222e-06
-2.28945e-07
2.86609e-06
-2.2381e-07
3.08237e-06
-2.16232e-07
3.28948e-06
-2.07059e-07
3.48915e-06
-1.99619e-07
3.68223e-06
-1.93039e-07
3.86659e-06
-1.84322e-07
4.04447e-06
-1.77841e-07
4.21614e-06
-1.71643e-07
4.38124e-06
-1.65066e-07
4.54031e-06
-1.59051e-07
4.69188e-06
-1.51549e-07
4.83659e-06
-1.44689e-07
4.97611e-06
-1.39511e-07
5.11081e-06
-1.34692e-07
5.24028e-06
-1.29458e-07
5.36279e-06
-1.22513e-07
5.47805e-06
-1.15257e-07
5.58665e-06
-1.08597e-07
5.69053e-06
-1.03886e-07
5.7913e-06
-1.0077e-07
5.88801e-06
-9.67191e-08
5.9795e-06
-9.15123e-08
6.06451e-06
-8.50254e-08
6.14318e-06
-7.86976e-08
6.2175e-06
-7.43471e-08
6.28821e-06
-7.07489e-08
6.35511e-06
-6.69308e-08
6.4172e-06
-6.21161e-08
6.47482e-06
-5.76482e-08
6.52925e-06
-5.44544e-08
6.58022e-06
-5.09962e-08
6.62583e-06
-4.56224e-08
6.66676e-06
-4.09363e-08
6.70468e-06
-3.79202e-08
6.74003e-06
-3.53472e-08
6.77288e-06
-3.28471e-08
6.80264e-06
-2.97517e-08
6.82897e-06
-2.63324e-08
6.8514e-06
-2.24267e-08
6.87054e-06
-1.91416e-08
6.88727e-06
-1.67386e-08
6.90209e-06
-1.48436e-08
6.91519e-06
-1.3137e-08
6.92572e-06
-1.05676e-08
6.93284e-06
-7.17392e-09
6.9376e-06
-4.81575e-09
6.94057e-06
-3.02236e-09
6.94166e-06
-1.15549e-09
6.94126e-06
3.50476e-10
6.93893e-06
2.27422e-09
6.93431e-06
4.58359e-09
6.92794e-06
6.34255e-09
6.92014e-06
7.77383e-09
6.91123e-06
8.90339e-09
6.90069e-06
1.05324e-08
6.88826e-06
1.24323e-08
6.87441e-06
1.38626e-08
6.85993e-06
1.44895e-08
6.8444e-06
1.55382e-08
6.82709e-06
1.73254e-08
6.80825e-06
1.88416e-08
6.78817e-06
2.00856e-08
6.76733e-06
2.08307e-08
6.74569e-06
2.16339e-08
6.72276e-06
2.29287e-08
6.69841e-06
2.43337e-08
6.67309e-06
2.531e-08
6.64709e-06
2.59932e-08
6.62007e-06
2.7019e-08
6.59173e-06
2.83442e-08
6.56211e-06
2.96364e-08
6.53169e-06
3.04322e-08
6.50074e-06
3.09764e-08
6.46857e-06
3.21934e-08
6.43499e-06
3.36121e-08
6.40039e-06
3.4625e-08
6.36525e-06
3.51717e-08
6.32931e-06
3.59642e-08
6.29209e-06
3.72494e-08
6.25361e-06
3.84975e-08
6.21401e-06
3.96178e-08
6.17352e-06
4.04913e-08
6.13235e-06
4.11823e-08
6.09035e-06
4.19953e-08
6.04743e-06
4.29151e-08
6.00353e-06
4.38919e-08
5.95855e-06
4.49669e-08
5.91257e-06
4.59699e-08
5.86581e-06
4.67435e-08
5.81843e-06
4.73646e-08
5.77014e-06
4.82695e-08
5.72073e-06
4.93957e-08
5.67029e-06
5.04192e-08
5.61901e-06
5.12698e-08
5.56712e-06
5.18687e-08
5.51477e-06
5.2342e-08
5.46158e-06
5.317e-08
5.40745e-06
5.41245e-08
5.35243e-06
5.49998e-08
5.29696e-06
5.5467e-08
5.24114e-06
5.58023e-08
5.18455e-06
5.65898e-08
5.12714e-06
5.73989e-08
5.06911e-06
5.80202e-08
5.01074e-06
5.83647e-08
4.95204e-06
5.86925e-08
4.89264e-06
5.94002e-08
4.83267e-06
5.99639e-08
4.77241e-06
6.02562e-08
4.71194e-06
6.04612e-08
4.65105e-06
6.08831e-08
4.58972e-06
6.13266e-08
4.52809e-06
6.16313e-08
4.46617e-06
6.19115e-08
4.4042e-06
6.19677e-08
4.3421e-06
6.20962e-08
4.27972e-06
6.23768e-08
4.21712e-06
6.26042e-08
4.15435e-06
6.27659e-08
4.0915e-06
6.28448e-08
4.02878e-06
6.27107e-08
3.96616e-06
6.262e-08
3.9035e-06
6.26569e-08
3.84083e-06
6.26613e-08
3.77833e-06
6.25058e-08
3.71598e-06
6.23452e-08
3.65366e-06
6.23162e-08
3.59139e-06
6.22632e-08
3.52921e-06
6.2175e-08
3.46725e-06
6.19525e-08
3.40568e-06
6.15669e-08
3.34444e-06
6.12414e-08
3.2834e-06
6.10376e-08
3.22253e-06
6.08647e-08
3.16183e-06
6.06945e-08
3.10144e-06
6.03858e-08
3.04139e-06
6.00451e-08
2.98177e-06
5.96157e-08
2.92258e-06
5.91899e-08
2.86355e-06
5.90211e-08
2.80489e-06
5.86617e-08
2.74688e-06
5.80073e-08
2.68942e-06
5.74498e-08
2.63208e-06
5.73428e-08
2.57523e-06
5.68472e-08
2.51896e-06
5.62632e-08
2.46301e-06
5.59464e-08
2.40747e-06
5.55442e-08
2.35246e-06
5.50019e-08
2.2981e-06
5.43617e-08
2.24429e-06
5.38065e-08
2.1911e-06
5.31881e-08
2.13831e-06
5.27907e-08
2.08601e-06
5.22953e-08
2.03411e-06
5.19025e-08
1.98282e-06
5.12897e-08
1.93193e-06
5.08835e-08
1.8819e-06
5.00243e-08
1.83223e-06
4.96756e-08
1.78307e-06
4.91539e-08
1.73441e-06
4.86632e-08
1.68637e-06
4.8035e-08
1.63916e-06
4.72053e-08
1.59222e-06
4.69427e-08
1.54624e-06
4.59794e-08
1.50088e-06
4.53596e-08
1.45619e-06
4.46854e-08
1.41288e-06
4.33102e-08
1.37051e-06
4.23702e-08
1.32686e-06
4.3653e-08
1.28511e-06
4.17518e-08
1.24312e-06
4.19833e-08
1.20127e-06
4.18482e-08
1.16823e-06
3.30402e-08
1.13516e-06
3.30693e-08
1.09206e-06
4.30991e-08
1.05803e-06
3.40286e-08
1.00874e-06
4.92958e-08
9.47076e-07
6.16599e-08
8.56641e-07
9.04341e-08
7.64859e-07
9.17811e-08
7.01122e-07
6.37362e-08
6.40889e-07
6.02323e-08
5.91004e-07
4.98841e-08
5.44106e-07
4.68976e-08
5.00821e-07
4.32837e-08
4.5816e-07
4.26604e-08
4.17573e-07
4.05866e-08
3.78368e-07
3.92034e-08
3.41679e-07
3.66879e-08
3.05336e-07
3.63418e-08
2.77591e-07
2.77439e-08
2.49811e-07
2.77784e-08
2.12925e-07
3.68843e-08
1.83953e-07
2.89714e-08
1.43464e-07
4.04877e-08
9.16381e-08
5.1825e-08
1.95932e-08
7.20442e-08
-5.07877e-08
7.03804e-08
-9.93285e-08
4.85405e-08
-1.45829e-07
4.65009e-08
-1.84032e-07
3.82033e-08
-2.20112e-07
3.608e-08
-2.53231e-07
3.31199e-08
-2.84371e-07
3.11401e-08
-3.12183e-07
2.78129e-08
-3.37969e-07
2.57867e-08
-3.60294e-07
2.23266e-08
-3.84094e-07
2.38015e-08
-4.05524e-07
2.14324e-08
-4.28657e-07
2.31355e-08
-4.49505e-07
2.0851e-08
-4.5774e-07
8.23871e-09
-4.58905e-07
1.16783e-09
-4.77874e-07
1.89711e-08
-4.92183e-07
1.4305e-08
-5.56501e-07
6.4303e-08
-6.55806e-07
9.92632e-08
-8.28644e-07
1.72772e-07
-9.91056e-07
1.62293e-07
-1.11407e-06
1.22804e-07
-1.21578e-06
1.01511e-07
-1.29417e-06
7.82153e-08
-1.36096e-06
6.66291e-08
-1.41931e-06
5.82094e-08
-1.47194e-06
5.25041e-08
-1.52044e-06
4.83742e-08
-1.56585e-06
4.53049e-08
-1.60891e-06
4.29677e-08
-1.65012e-06
4.11168e-08
-1.68971e-06
3.95121e-08
-1.72788e-06
3.80996e-08
-1.76486e-06
3.69089e-08
-1.80087e-06
3.5946e-08
-1.83604e-06
3.51193e-08
-1.8704e-06
3.43119e-08
-1.90393e-06
3.34787e-08
-1.93661e-06
3.2637e-08
-1.96849e-06
3.18424e-08
-1.99965e-06
3.11251e-08
-2.03019e-06
3.05002e-08
-2.06012e-06
2.9903e-08
-2.08947e-06
2.93289e-08
-2.11824e-06
2.87443e-08
-2.14624e-06
2.79748e-08
-2.17366e-06
2.73965e-08
-2.20048e-06
2.67997e-08
-2.22661e-06
2.61108e-08
-2.25203e-06
2.54014e-08
-2.27669e-06
2.46432e-08
-2.30053e-06
2.383e-08
-2.32356e-06
2.3019e-08
-2.34583e-06
2.2256e-08
-2.36741e-06
2.15696e-08
-2.38838e-06
2.09545e-08
-2.40886e-06
2.04713e-08
-2.42904e-06
2.01769e-08
-2.44874e-06
1.96899e-08
-2.4681e-06
1.93469e-08
-2.4872e-06
1.9097e-08
-2.5061e-06
1.88943e-08
-2.52486e-06
1.87495e-08
-2.54351e-06
1.86414e-08
-2.56202e-06
1.85125e-08
-2.58035e-06
1.83158e-08
-2.5984e-06
1.80463e-08
-2.61607e-06
1.76718e-08
-2.63331e-06
1.72293e-08
-2.65004e-06
1.67314e-08
-2.66627e-06
1.62213e-08
-2.68203e-06
1.5757e-08
-2.69747e-06
1.54422e-08
-2.71284e-06
1.53577e-08
-2.72829e-06
1.54494e-08
-2.74377e-06
1.54809e-08
-2.75901e-06
1.52329e-08
-2.77367e-06
1.46539e-08
-2.78775e-06
1.40771e-08
-2.80176e-06
1.40157e-08
-2.81621e-06
1.44481e-08
-2.8312e-06
1.49783e-08
-2.84631e-06
1.51131e-08
-2.86069e-06
1.43716e-08
-2.87433e-06
1.36373e-08
-2.888e-06
1.36739e-08
-2.90224e-06
1.42322e-08
-2.91668e-06
1.4441e-08
-2.93018e-06
1.34982e-08
-2.94273e-06
1.25444e-08
-2.95529e-06
1.2562e-08
-2.96824e-06
1.29483e-08
-2.98078e-06
1.25361e-08
-2.99242e-06
1.16354e-08
-3.00417e-06
1.17482e-08
-3.01698e-06
1.28038e-08
-3.03033e-06
1.33535e-08
-3.04368e-06
1.33456e-08
-3.05781e-06
1.41245e-08
-3.07374e-06
1.59247e-08
2.09304e-08
8.34561e-05
-1.97074e-07
9.27247e-05
-1.33928e-05
0.000104907
-2.98518e-05
0.000111505
-2.94357e-05
0.000110505
-1.63275e-05
0.000105844
2.79351e-06
0.000102308
1.51242e-05
9.92634e-05
1.8079e-05
9.56431e-05
1.65639e-05
9.1508e-05
1.31056e-05
8.76136e-05
1.02422e-05
8.4196e-05
8.12072e-06
8.12297e-05
6.58892e-06
7.86329e-05
5.41301e-06
7.63333e-05
4.61803e-06
7.42384e-05
4.32112e-06
7.22656e-05
4.36993e-06
7.04306e-05
4.14783e-06
6.86908e-05
3.64786e-06
6.69968e-05
3.21769e-06
6.52942e-05
3.03648e-06
6.36228e-05
3.09151e-06
6.20266e-05
3.24373e-06
6.05229e-05
3.34241e-06
5.89589e-05
3.63058e-06
5.71815e-05
3.71977e-06
5.52677e-05
3.53026e-06
5.34984e-05
3.10774e-06
5.19757e-05
2.93771e-06
5.06518e-05
3.0813e-06
4.92311e-05
3.34649e-06
4.76745e-05
3.08639e-06
4.61316e-05
2.69631e-06
4.46576e-05
2.64054e-06
4.31891e-05
3.09427e-06
4.1613e-05
3.70036e-06
3.9964e-05
3.75305e-06
3.83941e-05
3.06774e-06
3.69956e-05
2.45916e-06
3.56677e-05
2.35508e-06
3.42553e-05
2.86812e-06
3.26592e-05
3.45467e-06
3.0888e-05
3.58765e-06
2.918e-05
3.2601e-06
2.76765e-05
2.76942e-06
2.62866e-05
2.52546e-06
2.49252e-05
2.63058e-06
2.34672e-05
2.90544e-06
2.19792e-05
2.93932e-06
2.06476e-05
2.59736e-06
1.93467e-05
2.50676e-06
1.78655e-05
2.88919e-06
1.62706e-05
3.29031e-06
1.4763e-05
3.38431e-06
1.33975e-05
3.13522e-06
1.20975e-05
2.66365e-06
1.06885e-05
2.53828e-06
9.10321e-06
2.82633e-06
7.48319e-06
3.05432e-06
6.08793e-06
2.66062e-06
5.03247e-06
1.84534e-06
4.1888e-06
1.09933e-06
3.34851e-06
7.27586e-07
2.31739e-06
8.6304e-07
1.21855e-06
9.28379e-07
2.51059e-07
5.51984e-07
-5.03872e-07
-1.86652e-07
-1.00123e-06
-1.15174e-06
-1.252e-06
-2.07468e-06
-1.1841e-06
-2.92507e-06
-7.28624e-07
-3.60279e-06
1.10323e-07
-4.0447e-06
1.43914e-06
-4.12618e-06
3.32416e-06
-3.64205e-06
5.81646e-06
-2.49123e-06
9.12243e-06
-4.59341e-07
1.25899e-05
1.94324e-06
1.59957e-05
4.61205e-06
1.57538e-05
5.37289e-06
1.25282e-05
4.2748e-06
7.17903e-06
6.77969e-06
2.91986e-06
4.02949e-06
2.1528e-06
1.41895e-06
3.15916e-07
1.71249e-06
2.04827e-07
3.45854e-07
-3.57084e-07
1.15625e-06
-5.69343e-07
5.7386e-07
-4.65522e-07
2.13755e-07
-3.76431e-07
-5.07697e-08
-8.35462e-07
3.86951e-07
-9.60798e-07
-2.47821e-07
-1.17391e-06
-4.73589e-07
-1.22317e-06
-9.66826e-07
-1.18498e-06
-1.60191e-06
-1.0512e-06
-2.33326e-06
-7.35293e-07
-2.85902e-06
-6.05476e-08
-3.62777e-06
1.13628e-06
-4.05638e-06
3.05994e-06
-3.89223e-06
5.88756e-06
-3.44801e-06
8.83205e-06
-2.61079e-06
1.12119e-05
-1.55109e-06
1.25397e-05
-3.00365e-07
1.28869e-05
5.60055e-07
1.27278e-05
1.18804e-06
1.21452e-05
1.40611e-06
1.13779e-05
1.32929e-06
1.04164e-05
1.58463e-06
9.41623e-06
1.75465e-06
8.61587e-06
1.53656e-06
8.04451e-06
1.27641e-06
7.42475e-06
1.30271e-06
6.785e-06
1.19245e-06
6.0879e-06
1.10164e-06
5.32031e-06
9.29612e-07
4.62464e-06
6.91342e-07
4.01228e-06
4.77912e-07
3.71997e-06
4.56895e-07
3.73837e-06
5.75447e-07
3.89996e-06
5.75533e-07
3.75626e-06
9.41028e-07
3.19975e-06
1.29935e-06
2.60188e-06
1.48297e-06
1.94147e-06
1.45727e-06
1.24467e-06
1.39148e-06
4.02854e-07
1.54337e-06
-3.65015e-07
1.44155e-06
-1.01685e-06
1.31845e-06
-1.65047e-06
1.29984e-06
-2.24812e-06
1.23047e-06
-2.85531e-06
1.21882e-06
-3.47127e-06
1.21737e-06
-4.06486e-06
1.16886e-06
-4.63852e-06
1.13946e-06
-5.20211e-06
1.12035e-06
-5.74885e-06
1.09656e-06
-6.28082e-06
1.06995e-06
-6.80543e-06
1.05027e-06
-7.3214e-06
1.03054e-06
-7.82153e-06
9.98348e-07
-8.30957e-06
9.71875e-07
-8.78571e-06
9.44851e-07
-9.24723e-06
9.21371e-07
-9.69362e-06
8.94025e-07
-1.01231e-05
8.61624e-07
-1.05403e-05
8.29764e-07
-1.09481e-05
8.09025e-07
-1.13439e-05
7.88132e-07
-1.1725e-05
7.63589e-07
-1.20887e-05
7.32624e-07
-1.24384e-05
6.9962e-07
-1.27778e-05
6.7427e-07
-1.31078e-05
6.55395e-07
-1.34272e-05
6.35446e-07
-1.3732e-05
6.10995e-07
-1.40207e-05
5.81364e-07
-1.42979e-05
5.54166e-07
-1.45656e-05
5.3219e-07
-1.48234e-05
5.13963e-07
-1.50697e-05
4.92953e-07
-1.53027e-05
4.64626e-07
-1.55224e-05
4.37112e-07
-1.57304e-05
4.14717e-07
-1.5928e-05
3.95772e-07
-1.61135e-05
3.71677e-07
-1.62847e-05
3.40878e-07
-1.64424e-05
3.14084e-07
-1.65906e-05
2.95407e-07
-1.67277e-05
2.75707e-07
-1.68515e-05
2.4844e-07
-1.69609e-05
2.17229e-07
-1.70571e-05
1.90925e-07
-1.71429e-05
1.70961e-07
-1.72177e-05
1.50926e-07
-1.72798e-05
1.26757e-07
-1.73293e-05
9.88411e-08
-1.73653e-05
7.0421e-08
-1.73903e-05
4.83958e-08
-1.74042e-05
2.80186e-08
-1.74039e-05
2.14182e-09
-1.73913e-05
-2.18778e-08
-1.73684e-05
-4.58425e-08
-1.7336e-05
-6.72153e-08
-1.72928e-05
-8.61356e-08
-1.72373e-05
-1.07889e-07
-1.71686e-05
-1.35659e-07
-1.70866e-05
-1.65338e-07
-1.6993e-05
-1.87478e-07
-1.68885e-05
-2.06222e-07
-1.67728e-05
-2.28091e-07
-1.66474e-05
-2.49107e-07
-1.65122e-05
-2.7116e-07
-1.63659e-05
-2.94059e-07
-1.62076e-05
-3.16434e-07
-1.60351e-05
-3.43224e-07
-1.58491e-05
-3.69619e-07
-1.56518e-05
-3.91086e-07
-1.5445e-05
-4.10499e-07
-1.52287e-05
-4.31662e-07
-1.49999e-05
-4.57262e-07
-1.47559e-05
-4.88442e-07
-1.44994e-05
-5.14126e-07
-1.42333e-05
-5.32291e-07
-1.39568e-05
-5.50299e-07
-1.36675e-05
-5.74177e-07
-1.33644e-05
-6.01912e-07
-1.30494e-05
-6.29346e-07
-1.27238e-05
-6.54174e-07
-1.23887e-05
-6.72845e-07
-1.2043e-05
-6.90465e-07
-1.16851e-05
-7.12939e-07
-1.13149e-05
-7.39326e-07
-1.09361e-05
-7.60433e-07
-1.05511e-05
-7.72017e-07
-1.01586e-05
-7.82095e-07
-9.75731e-06
-8.01135e-07
-9.34715e-06
-8.20523e-07
-8.92935e-06
-8.37584e-07
-8.50572e-06
-8.52165e-07
-8.07851e-06
-8.56322e-07
-7.65091e-06
-8.51504e-07
-7.22258e-06
-8.53895e-07
-6.79141e-06
-8.62358e-07
-6.35605e-06
-8.73201e-07
-5.92081e-06
-8.76517e-07
-5.4876e-06
-8.70409e-07
-5.05785e-06
-8.56894e-07
-4.63234e-06
-8.48235e-07
-4.21183e-06
-8.42039e-07
-3.79578e-06
-8.33269e-07
-3.38525e-06
-8.23555e-07
-2.98059e-06
-8.14101e-07
-2.58363e-06
-7.94213e-07
-2.19711e-06
-7.70364e-07
-1.82035e-06
-7.53937e-07
-1.45222e-06
-7.37351e-07
-1.09232e-06
-7.19829e-07
-7.41568e-07
-7.01744e-07
-4.0148e-07
-6.78853e-07
-7.35341e-08
-6.53615e-07
2.41637e-07
-6.30693e-07
5.45777e-07
-6.10573e-07
8.40847e-07
-5.89897e-07
1.1264e-06
-5.67622e-07
1.40305e-06
-5.4963e-07
1.66992e-06
-5.32494e-07
1.92823e-06
-5.17757e-07
2.17774e-06
-4.97896e-07
2.41713e-06
-4.75725e-07
2.64692e-06
-4.58651e-07
2.87031e-06
-4.47127e-07
3.08688e-06
-4.32723e-07
3.29477e-06
-4.1488e-07
3.49409e-06
-3.98873e-07
3.68641e-06
-3.85302e-07
3.87252e-06
-3.70377e-07
4.05236e-06
-3.57635e-07
4.2251e-06
-3.44341e-07
4.39047e-06
-3.30395e-07
4.5479e-06
-3.16451e-07
4.69831e-06
-3.01927e-07
4.84418e-06
-2.90537e-07
4.98517e-06
-2.80483e-07
5.12009e-06
-2.696e-07
5.24883e-06
-2.58186e-07
5.3707e-06
-2.44383e-07
5.48607e-06
-2.3062e-07
5.59583e-06
-2.18354e-07
5.7007e-06
-2.08768e-07
5.80147e-06
-2.01552e-07
5.89721e-06
-1.92473e-07
5.98741e-06
-1.81734e-07
6.07226e-06
-1.69904e-07
6.15213e-06
-1.58593e-07
6.22734e-06
-1.49598e-07
6.29783e-06
-1.41275e-07
6.36349e-06
-1.3262e-07
6.42514e-06
-1.23797e-07
6.48307e-06
-1.15598e-07
6.53721e-06
-1.08622e-07
6.58752e-06
-1.01315e-07
6.63325e-06
-9.13534e-08
6.67458e-06
-8.22673e-08
6.71273e-06
-7.60732e-08
6.74814e-06
-7.07471e-08
6.78041e-06
-6.51194e-08
6.80919e-06
-5.8531e-08
6.83474e-06
-5.19012e-08
6.85731e-06
-4.50128e-08
6.87695e-06
-3.88214e-08
6.89406e-06
-3.38954e-08
6.90867e-06
-2.95118e-08
6.92071e-06
-2.52462e-08
6.93027e-06
-2.02106e-08
6.93746e-06
-1.44405e-08
6.94277e-06
-1.02089e-08
6.94599e-06
-6.32189e-09
6.94675e-06
-1.98842e-09
6.94535e-06
1.68767e-09
6.94258e-06
5.00125e-09
6.93837e-06
8.76005e-09
6.93244e-06
1.22495e-08
6.92455e-06
1.56556e-08
6.91487e-06
1.85817e-08
6.90401e-06
2.14043e-08
6.89202e-06
2.44311e-08
6.87851e-06
2.73812e-08
6.86363e-06
2.93789e-08
6.84748e-06
3.16934e-08
6.82996e-06
3.48448e-08
6.81136e-06
3.74345e-08
6.7916e-06
3.98408e-08
6.7705e-06
4.19172e-08
6.74841e-06
4.37026e-08
6.7254e-06
4.59249e-08
6.70134e-06
4.83926e-08
6.67613e-06
5.05109e-08
6.64977e-06
5.23618e-08
6.62239e-06
5.44096e-08
6.59408e-06
5.66809e-08
6.56483e-06
5.89179e-08
6.5346e-06
6.06996e-08
6.50329e-06
6.23336e-08
6.47075e-06
6.47745e-08
6.43729e-06
6.71275e-08
6.40298e-06
6.89796e-08
6.36776e-06
7.04353e-08
6.33151e-06
7.22567e-08
6.29413e-06
7.46584e-08
6.2557e-06
7.69503e-08
6.21637e-06
7.89681e-08
6.17612e-06
8.07483e-08
6.13488e-06
8.24151e-08
6.09271e-06
8.41586e-08
6.04961e-06
8.60016e-08
6.00563e-06
8.78437e-08
5.96069e-06
8.98834e-08
5.91479e-06
9.18397e-08
5.86798e-06
9.35336e-08
5.82025e-06
9.50551e-08
5.77171e-06
9.67873e-08
5.7223e-06
9.87712e-08
5.67196e-06
1.00736e-07
5.62082e-06
1.02378e-07
5.56898e-06
1.03687e-07
5.51637e-06
1.04925e-07
5.46295e-06
1.0657e-07
5.40877e-06
1.08278e-07
5.35393e-06
1.09826e-07
5.29843e-06
1.1095e-07
5.24228e-06
1.11937e-07
5.18545e-06
1.13404e-07
5.12805e-06
1.14783e-07
5.07011e-06
1.15954e-07
5.0116e-06
1.1686e-07
4.95261e-06
1.17673e-07
4.89318e-06
1.18824e-07
4.83336e-06
1.19771e-07
4.77308e-06
1.20526e-07
4.71229e-06
1.21249e-07
4.65107e-06
1.22098e-07
4.58971e-06
1.22671e-07
4.52818e-06
1.2316e-07
4.46628e-06
1.23801e-07
4.40417e-06
1.24075e-07
4.34181e-06
1.24451e-07
4.27926e-06
1.24913e-07
4.21668e-06
1.2518e-07
4.15399e-06
1.25448e-07
4.09119e-06
1.25638e-07
4.02839e-06
1.25503e-07
3.96562e-06
1.25387e-07
3.9029e-06
1.25368e-07
3.84016e-06
1.25395e-07
3.77746e-06
1.25193e-07
3.71486e-06
1.24945e-07
3.6524e-06
1.24769e-07
3.59018e-06
1.24471e-07
3.52812e-06
1.24233e-07
3.46617e-06
1.23893e-07
3.40442e-06
1.23303e-07
3.34295e-06
1.22703e-07
3.28175e-06
1.22231e-07
3.22077e-06
1.21841e-07
3.15998e-06
1.21475e-07
3.09962e-06
1.20735e-07
3.03961e-06
1.20048e-07
2.97992e-06
1.19304e-07
2.92059e-06
1.18511e-07
2.86166e-06
1.1794e-07
2.80314e-06
1.17177e-07
2.74503e-06
1.16116e-07
2.68725e-06
1.15214e-07
2.62987e-06
1.1472e-07
2.57301e-06
1.137e-07
2.51667e-06
1.12603e-07
2.46077e-06
1.11841e-07
2.40539e-06
1.10917e-07
2.35039e-06
1.09998e-07
2.29599e-06
1.08761e-07
2.24205e-06
1.07743e-07
2.18874e-06
1.06495e-07
2.13586e-06
1.05667e-07
2.08363e-06
1.04516e-07
2.03182e-06
1.03711e-07
1.98074e-06
1.02368e-07
1.92999e-06
1.01623e-07
1.88005e-06
9.99581e-08
1.83047e-06
9.9258e-08
1.78114e-06
9.84758e-08
1.73242e-06
9.73827e-08
1.68398e-06
9.64736e-08
1.63673e-06
9.44576e-08
1.58991e-06
9.376e-08
1.54479e-06
9.10936e-08
1.50014e-06
9.00093e-08
1.45423e-06
9.05915e-08
1.40927e-06
8.82672e-08
1.36423e-06
8.74137e-08
1.32085e-06
8.70276e-08
1.28619e-06
7.64126e-08
1.25143e-06
7.67339e-08
1.20662e-06
8.66599e-08
1.16246e-06
7.71963e-08
1.1027e-06
9.28298e-08
1.03686e-06
1.08941e-07
9.43481e-07
1.27403e-07
8.54592e-07
1.38183e-07
7.92412e-07
1.23838e-07
7.42791e-07
1.40053e-07
7.06708e-07
1.27862e-07
6.61579e-07
1.08863e-07
6.19956e-07
1.01853e-07
5.74595e-07
9.5243e-08
5.31742e-07
8.97483e-08
4.87667e-07
8.73563e-08
4.4668e-07
8.36444e-08
4.07522e-07
7.97409e-08
3.76914e-07
6.98082e-08
3.46279e-07
6.73195e-08
3.04955e-07
7.76628e-08
2.64808e-07
6.78868e-08
2.13525e-07
7.90577e-08
1.58084e-07
9.23218e-08
8.1846e-08
1.05206e-07
1.17061e-08
1.10624e-07
-3.57788e-08
9.93061e-08
-7.24635e-08
1.08725e-07
-1.00974e-07
9.88868e-08
-1.37067e-07
8.46297e-08
-1.69454e-07
7.88844e-08
-2.02763e-07
7.15081e-08
-2.32035e-07
6.53468e-08
-2.60871e-07
6.19509e-08
-2.88607e-07
5.88707e-08
-3.16818e-07
5.60169e-08
-3.43999e-07
5.29604e-08
-3.73715e-07
5.20355e-08
-3.97967e-07
4.80453e-08
-4.09364e-07
3.28209e-08
-4.13515e-07
2.72781e-08
-4.35596e-07
4.29242e-08
-4.65149e-07
3.77854e-08
-5.45095e-07
8.11122e-08
-6.58546e-07
1.32433e-07
-8.29766e-07
1.85551e-07
-9.97053e-07
2.31666e-07
-1.11141e-06
2.13775e-07
-1.20432e-06
2.65886e-07
-1.24655e-06
2.04831e-07
-1.2847e-06
1.61246e-07
-1.32724e-06
1.44328e-07
-1.37361e-06
1.24846e-07
-1.4199e-06
1.13154e-07
-1.46581e-06
1.04329e-07
-1.51091e-06
9.78007e-08
-1.55478e-06
9.2422e-08
-1.59723e-06
8.79054e-08
-1.63829e-06
8.41732e-08
-1.67802e-06
8.09847e-08
-1.71646e-06
7.80643e-08
-1.75369e-06
7.54347e-08
-1.78986e-06
7.31767e-08
-1.82504e-06
7.12195e-08
-1.85925e-06
6.941e-08
-1.89252e-06
6.76454e-08
-1.92483e-06
6.58611e-08
-1.9564e-06
6.42603e-08
-1.98725e-06
6.27518e-08
-2.01749e-06
6.1412e-08
-2.04718e-06
6.02255e-08
-2.07634e-06
5.91025e-08
-2.10495e-06
5.79781e-08
-2.13296e-06
5.6785e-08
-2.16058e-06
5.56278e-08
-2.18753e-06
5.43653e-08
-2.21375e-06
5.30392e-08
-2.23939e-06
5.17733e-08
-2.26446e-06
5.0489e-08
-2.28892e-06
4.91217e-08
-2.31274e-06
4.76621e-08
-2.33595e-06
4.62397e-08
-2.3586e-06
4.49177e-08
-2.38073e-06
4.37102e-08
-2.40232e-06
4.25542e-08
-2.42332e-06
4.14783e-08
-2.4436e-06
4.04615e-08
-2.46367e-06
3.97692e-08
-2.4834e-06
3.90817e-08
-2.50278e-06
3.84796e-08
-2.52188e-06
3.79973e-08
-2.54075e-06
3.76178e-08
-2.55938e-06
3.72714e-08
-2.57774e-06
3.68753e-08
-2.59579e-06
3.63674e-08
-2.61348e-06
3.57369e-08
-2.63082e-06
3.50081e-08
-2.64779e-06
3.42084e-08
-2.66441e-06
3.33426e-08
-2.68061e-06
3.24287e-08
-2.69644e-06
3.15783e-08
-2.71195e-06
3.09494e-08
-2.72729e-06
3.07005e-08
-2.74257e-06
3.07306e-08
-2.75775e-06
3.06607e-08
-2.77266e-06
3.01399e-08
-2.78725e-06
2.92352e-08
-2.80169e-06
2.85177e-08
-2.81618e-06
2.85016e-08
-2.83099e-06
2.92547e-08
-2.84583e-06
2.98186e-08
-2.85989e-06
2.91742e-08
-2.87345e-06
2.79277e-08
-2.8871e-06
2.72827e-08
-2.90118e-06
2.77464e-08
-2.91533e-06
2.83795e-08
-2.92873e-06
2.78426e-08
-2.94147e-06
2.6235e-08
-2.95444e-06
2.55123e-08
-2.96779e-06
2.59138e-08
-2.98089e-06
2.60423e-08
-2.99328e-06
2.49249e-08
-3.00594e-06
2.42858e-08
-3.01922e-06
2.50255e-08
-3.03252e-06
2.61059e-08
-3.04554e-06
2.63645e-08
-3.05818e-06
2.59861e-08
-3.07004e-06
2.5982e-08
-3.08192e-06
2.7803e-08
3.36752e-08
8.24872e-05
1.55118e-07
8.51321e-05
-1.60402e-05
8.32375e-05
-2.7959e-05
7.819e-05
-2.43896e-05
6.91474e-05
-7.28597e-06
6.63315e-05
5.6086e-06
6.94723e-05
1.19827e-05
7.37657e-05
1.3785e-05
7.72599e-05
1.30692e-05
7.87849e-05
1.15803e-05
7.88839e-05
1.01428e-05
7.81455e-05
8.8589e-06
7.6931e-05
7.80314e-06
7.54252e-05
6.91858e-06
7.3776e-05
6.26704e-06
7.21604e-05
5.93655e-06
7.06895e-05
5.84065e-06
6.93026e-05
5.53459e-06
6.78218e-05
5.12854e-06
6.61321e-05
4.90722e-06
6.43188e-05
4.84966e-06
6.26169e-05
4.7933e-06
6.11928e-05
4.66768e-06
5.99509e-05
4.58418e-06
5.87342e-05
4.84723e-06
5.71283e-05
5.32548e-06
5.51491e-05
5.50946e-06
5.32179e-05
5.03884e-06
5.16888e-05
4.46675e-06
5.04935e-05
4.2765e-06
4.93406e-05
4.49932e-06
4.78215e-05
4.60541e-06
4.60634e-05
4.45432e-06
4.44437e-05
4.26014e-06
4.31349e-05
4.40308e-06
4.19499e-05
4.88523e-06
4.06368e-05
5.06612e-06
3.90508e-05
4.65363e-06
3.7338e-05
4.17178e-06
3.57021e-05
3.99094e-06
3.4201e-05
4.36905e-06
3.27355e-05
4.92005e-06
3.11131e-05
5.20998e-06
2.93821e-05
4.99095e-06
2.76629e-05
4.48849e-06
2.59837e-05
4.2045e-06
2.44278e-05
4.18631e-06
2.30176e-05
4.31559e-06
2.16325e-05
4.32421e-06
2.01951e-05
4.03464e-06
1.87635e-05
3.93829e-06
1.74078e-05
4.24478e-06
1.60875e-05
4.61045e-06
1.48706e-05
4.6011e-06
1.36965e-05
4.30928e-06
1.22747e-05
4.08529e-06
1.06414e-05
4.17151e-06
8.97569e-06
4.49196e-06
7.47356e-06
4.55636e-06
6.21233e-06
3.92175e-06
5.02456e-06
3.03301e-06
3.77598e-06
2.3478e-06
2.4242e-06
2.07927e-06
1.07884e-06
2.20829e-06
-1.20085e-07
2.1272e-06
-1.22548e-06
1.65728e-06
-2.51325e-06
1.10101e-06
-4.11324e-06
4.48134e-07
-5.78008e-06
-4.07959e-07
-7.29348e-06
-1.41179e-06
-8.60862e-06
-2.28778e-06
-9.74936e-06
-2.9041e-06
-1.06698e-05
-3.20588e-06
-1.13138e-05
-2.99826e-06
-1.12953e-05
-2.50981e-06
-9.89073e-06
-1.8641e-06
-6.87556e-06
-1.07207e-06
-2.03797e-06
-2.25689e-07
2.85113e-06
4.83658e-07
6.10511e-06
1.02071e-06
9.72694e-06
3.15775e-06
1.02996e-05
3.45672e-06
8.89716e-06
2.8213e-06
4.83592e-06
5.77364e-06
1.45235e-06
3.72934e-06
1.08335e-06
1.52521e-06
-7.12904e-07
2.37006e-06
-1.20563e-06
7.06412e-07
-1.57301e-06
3.16551e-07
-1.60128e-06
4.15171e-07
-1.53161e-06