/*--------------------------------*- C++ -*----------------------------------*\
| =========                 |                                                 |
| \\      /  F ield         | OpenFOAM: The Open Source CFD Toolbox           |
|  \\    /   O peration     | Version:  v2006                                 |
|   \\  /    A nd           | Website:  www.openfoam.com                      |
|    \\/     M anipulation  |                                                 |
\*---------------------------------------------------------------------------*/
FoamFile
{
    version     2.0;
    format      ascii;
    class       volScalarField;
    location    "4.3";
    object      k;
}
// * * * * * * * * * * * * * * * * * * * * * * * * * * * * * * * * * * * * * //

dimensions      [0 2 -2 0 0 0 0];


internalField   nonuniform List<scalar> 
33000
(
1.23385e-08
1.55982e-08
2.18556e-08
3.28002e-08
4.78231e-08
6.55138e-08
8.14787e-08
9.23921e-08
9.8551e-08
1.01814e-07
1.036e-07
1.04674e-07
1.05424e-07
1.06045e-07
1.06625e-07
1.07159e-07
1.07593e-07
1.07878e-07
1.08078e-07
1.08319e-07
1.08665e-07
1.09115e-07
1.09621e-07
1.10121e-07
1.10547e-07
1.10851e-07
1.11078e-07
1.11298e-07
1.11549e-07
1.11811e-07
1.1197e-07
1.12026e-07
1.12079e-07
1.1216e-07
1.12216e-07
1.12106e-07
1.11769e-07
1.11323e-07
1.11006e-07
1.10805e-07
1.10758e-07
1.1077e-07
1.10687e-07
1.104e-07
1.09949e-07
1.09416e-07
1.08862e-07
1.08355e-07
1.07913e-07
1.07534e-07
1.07198e-07
1.06857e-07
1.0643e-07
1.05819e-07
1.04938e-07
1.03746e-07
1.02232e-07
1.0037e-07
9.81064e-08
9.53771e-08
9.21488e-08
8.84473e-08
8.43555e-08
8.04848e-08
7.70628e-08
7.36911e-08
7.02425e-08
6.69021e-08
6.39586e-08
6.16065e-08
6.00127e-08
5.92877e-08
5.96266e-08
6.12132e-08
6.39393e-08
6.77674e-08
7.10059e-08
7.40131e-08
7.68639e-08
7.94675e-08
8.15193e-08
8.01621e-08
7.88926e-08
7.78138e-08
7.7002e-08
7.65697e-08
7.64185e-08
7.61363e-08
7.50143e-08
7.30094e-08
7.0515e-08
6.72911e-08
6.38503e-08
6.01961e-08
5.63946e-08
5.33699e-08
5.10028e-08
4.99532e-08
5.01705e-08
5.39368e-08
5.78975e-08
5.74161e-08
5.55508e-08
5.48937e-08
5.49709e-08
5.50788e-08
5.49975e-08
5.46346e-08
5.43414e-08
5.3941e-08
5.34463e-08
5.27616e-08
5.17049e-08
5.01626e-08
4.84027e-08
4.70386e-08
4.66891e-08
4.8036e-08
4.9825e-08
4.99935e-08
5.00883e-08
5.01143e-08
5.02851e-08
5.04435e-08
5.05463e-08
5.06095e-08
5.06411e-08
5.06612e-08
5.06793e-08
5.06941e-08
5.07027e-08
5.07003e-08
5.06811e-08
5.06471e-08
5.06074e-08
5.0568e-08
5.05293e-08
5.04887e-08
5.04461e-08
5.04008e-08
5.03474e-08
5.02798e-08
5.0203e-08
5.01262e-08
5.00488e-08
4.99628e-08
4.98675e-08
4.97695e-08
4.96744e-08
4.95814e-08
4.94815e-08
4.93691e-08
4.92508e-08
4.91392e-08
4.90386e-08
4.89405e-08
4.88337e-08
4.87174e-08
4.86061e-08
4.85082e-08
4.84153e-08
4.83149e-08
4.82077e-08
4.81093e-08
4.80205e-08
4.79268e-08
4.78194e-08
4.77122e-08
4.76209e-08
4.75367e-08
4.74411e-08
4.73334e-08
4.72341e-08
4.71543e-08
4.70817e-08
4.70014e-08
4.69131e-08
4.68308e-08
4.67625e-08
4.67035e-08
4.66451e-08
4.65812e-08
4.65175e-08
4.6466e-08
4.64293e-08
4.63867e-08
4.63233e-08
4.62619e-08
4.62238e-08
4.61918e-08
4.6149e-08
4.61022e-08
4.60537e-08
4.60056e-08
4.59565e-08
4.58968e-08
4.58367e-08
4.57832e-08
4.57243e-08
4.56533e-08
4.55711e-08
4.54907e-08
4.54266e-08
4.53714e-08
4.53075e-08
4.52326e-08
4.51512e-08
4.50726e-08
4.50077e-08
4.49501e-08
4.48838e-08
4.48068e-08
4.47306e-08
4.4664e-08
4.45992e-08
4.4519e-08
4.44292e-08
4.43353e-08
4.42379e-08
4.41671e-08
4.41263e-08
4.40962e-08
4.40813e-08
4.40878e-08
4.4122e-08
4.41862e-08
4.42687e-08
4.43576e-08
4.44573e-08
4.45527e-08
4.46235e-08
4.4674e-08
4.47068e-08
4.47083e-08
4.46811e-08
4.46328e-08
4.4564e-08
4.44772e-08
4.43736e-08
4.42501e-08
4.41067e-08
4.39473e-08
4.37749e-08
4.35869e-08
4.33862e-08
4.31801e-08
4.29718e-08
4.27653e-08
4.2555e-08
4.23385e-08
4.21186e-08
4.18992e-08
4.16782e-08
4.14536e-08
4.12275e-08
4.10004e-08
4.07706e-08
4.05389e-08
4.03058e-08
4.00718e-08
3.98367e-08
3.95989e-08
3.93594e-08
3.91192e-08
3.88788e-08
3.8638e-08
3.83961e-08
3.81529e-08
3.79081e-08
3.76627e-08
3.74176e-08
3.71726e-08
3.69272e-08
3.66807e-08
3.64336e-08
3.61862e-08
3.59387e-08
3.56911e-08
3.54434e-08
3.51961e-08
3.49496e-08
3.47034e-08
3.44571e-08
3.42105e-08
3.39644e-08
3.37188e-08
3.34735e-08
3.32284e-08
3.29834e-08
3.27387e-08
3.24945e-08
3.22514e-08
3.20096e-08
3.17691e-08
3.15297e-08
3.12919e-08
3.10557e-08
3.08218e-08
3.05902e-08
3.03607e-08
3.01333e-08
2.99082e-08
2.96858e-08
2.94662e-08
2.92491e-08
2.90347e-08
2.88223e-08
2.86129e-08
2.84064e-08
2.82022e-08
2.80003e-08
2.78001e-08
2.76023e-08
2.74076e-08
2.72163e-08
2.70281e-08
2.68432e-08
2.66617e-08
2.64834e-08
2.63076e-08
2.61342e-08
2.59627e-08
2.57938e-08
2.56271e-08
2.54619e-08
2.52982e-08
2.51356e-08
2.49746e-08
2.48146e-08
2.46554e-08
2.44967e-08
2.43384e-08
2.41802e-08
2.40221e-08
2.38638e-08
2.37053e-08
2.35463e-08
2.3387e-08
2.32271e-08
2.30669e-08
2.29061e-08
2.27447e-08
2.25827e-08
2.24202e-08
2.22569e-08
2.20931e-08
2.19286e-08
2.17634e-08
2.15974e-08
2.14307e-08
2.12636e-08
2.10959e-08
2.09277e-08
2.0759e-08
2.05899e-08
2.04207e-08
2.02514e-08
2.00816e-08
1.99116e-08
1.97416e-08
1.95714e-08
1.94012e-08
1.92308e-08
1.90606e-08
1.88906e-08
1.87211e-08
1.8552e-08
1.83831e-08
1.82145e-08
1.80464e-08
1.78786e-08
1.77113e-08
1.75446e-08
1.73785e-08
1.7213e-08
1.70483e-08
1.68844e-08
1.67213e-08
1.65591e-08
1.63976e-08
1.62371e-08
1.60775e-08
1.59188e-08
1.57624e-08
1.56084e-08
1.54569e-08
1.53079e-08
1.51612e-08
1.50172e-08
1.48755e-08
1.47361e-08
1.45991e-08
1.44646e-08
1.43326e-08
1.4203e-08
1.40759e-08
1.39513e-08
1.38291e-08
1.37091e-08
1.35915e-08
1.3476e-08
1.3363e-08
1.32523e-08
1.31439e-08
1.30381e-08
1.29346e-08
1.28337e-08
1.27353e-08
1.2639e-08
1.25456e-08
1.2454e-08
1.23653e-08
1.2278e-08
1.21933e-08
1.21109e-08
1.20292e-08
1.19496e-08
1.18717e-08
1.17911e-08
1.17169e-08
1.16494e-08
1.15734e-08
1.15107e-08
1.14396e-08
1.13314e-08
1.12707e-08
1.12443e-08
1.11402e-08
1.11975e-08
1.12082e-08
1.14899e-08
1.14532e-08
1.15579e-08
1.15414e-08
1.15758e-08
1.1556e-08
1.15663e-08
1.155e-08
1.15508e-08
1.15298e-08
1.15185e-08
1.14945e-08
1.14361e-08
1.1415e-08
1.14103e-08
1.13484e-08
1.1401e-08
1.14067e-08
1.15734e-08
1.15623e-08
1.16029e-08
1.1593e-08
1.15905e-08
1.15744e-08
1.1562e-08
1.15363e-08
1.1512e-08
1.14582e-08
1.1424e-08
1.14043e-08
1.13398e-08
1.13387e-08
1.12683e-08
1.10306e-08
1.1005e-08
1.10635e-08
1.08616e-08
1.15509e-08
1.1894e-08
1.41599e-08
1.44335e-08
1.53082e-08
1.56977e-08
1.60546e-08
1.63124e-08
1.65126e-08
1.66585e-08
1.67616e-08
1.68383e-08
1.68961e-08
1.69397e-08
1.69716e-08
1.69927e-08
1.70034e-08
1.70079e-08
1.70073e-08
1.70019e-08
1.69922e-08
1.69787e-08
1.69617e-08
1.69419e-08
1.69195e-08
1.6895e-08
1.68686e-08
1.68402e-08
1.68097e-08
1.67773e-08
1.6743e-08
1.67065e-08
1.66677e-08
1.66266e-08
1.65832e-08
1.65373e-08
1.64893e-08
1.64396e-08
1.63885e-08
1.63365e-08
1.62837e-08
1.62304e-08
1.61771e-08
1.6124e-08
1.60714e-08
1.60193e-08
1.59675e-08
1.59161e-08
1.58648e-08
1.58134e-08
1.57616e-08
1.57094e-08
1.56567e-08
1.56033e-08
1.55496e-08
1.54959e-08
1.54426e-08
1.53898e-08
1.53374e-08
1.52848e-08
1.52315e-08
1.51777e-08
1.51245e-08
1.50725e-08
1.50217e-08
1.49708e-08
1.49188e-08
1.48663e-08
1.48145e-08
1.47638e-08
1.47129e-08
1.46605e-08
1.46071e-08
1.45539e-08
1.45013e-08
1.44481e-08
1.4394e-08
1.43407e-08
1.42903e-08
1.42258e-08
1.41234e-08
1.4195e-08
1.26608e-08
1.04856e-08
1.12322e-08
1.43807e-08
2.25218e-08
3.47191e-08
4.47519e-08
4.88435e-08
4.79346e-08
4.5107e-08
4.21806e-08
3.95929e-08
3.72816e-08
3.5322e-08
3.40305e-08
3.37642e-08
3.40909e-08
3.39849e-08
3.26712e-08
3.08902e-08
2.98443e-08
2.99175e-08
3.06838e-08
3.13619e-08
3.1763e-08
3.18356e-08
3.10321e-08
2.96523e-08
2.86647e-08
2.87996e-08
2.92965e-08
2.89534e-08
2.73398e-08
2.63184e-08
2.67853e-08
2.81856e-08
2.89443e-08
2.78961e-08
2.54444e-08
2.36725e-08
2.35503e-08
2.4629e-08
2.53748e-08
2.49612e-08
2.37544e-08
2.23569e-08
2.15131e-08
2.13876e-08
2.14428e-08
2.12355e-08
2.06952e-08
2.04008e-08
2.08113e-08
2.15668e-08
2.19029e-08
2.15421e-08
2.06547e-08
1.99948e-08
2.00613e-08
2.04882e-08
2.05478e-08
2.01898e-08
1.99045e-08
2.03161e-08
2.1308e-08
2.25189e-08
2.38097e-08
2.50178e-08
2.59523e-08
2.63335e-08
2.62377e-08
2.60332e-08
2.58697e-08
2.57991e-08
2.58448e-08
2.60246e-08
2.65084e-08
2.76576e-08
2.8334e-08
2.71942e-08
2.60543e-08
2.49577e-08
2.18967e-08
1.90906e-08
1.6289e-08
1.44992e-08
1.25026e-08
1.20724e-08
1.21385e-08
1.21419e-08
1.24205e-08
1.29896e-08
1.36693e-08
1.43443e-08
1.49037e-08
1.51997e-08
1.51848e-08
1.48022e-08
1.4231e-08
1.365e-08
1.32332e-08
1.32435e-08
1.40034e-08
1.4171e-08
1.38325e-08
1.39447e-08
1.24434e-08
1.15753e-08
1.17381e-08
1.20145e-08
1.19046e-08
1.1784e-08
1.17893e-08
1.16844e-08
1.17034e-08
1.17892e-08
1.17418e-08
1.15415e-08
1.13693e-08
1.15982e-08
1.19627e-08
1.21258e-08
1.2048e-08
1.22907e-08
1.19327e-08
1.16048e-08
1.16141e-08
1.15467e-08
1.15243e-08
1.15144e-08
1.1429e-08
1.13728e-08
1.1351e-08
1.13071e-08
1.12829e-08
1.12681e-08
1.12564e-08
1.12355e-08
1.12131e-08
1.11936e-08
1.1167e-08
1.11421e-08
1.11108e-08
1.10843e-08
1.1063e-08
1.10357e-08
1.10027e-08
1.09721e-08
1.09517e-08
1.0936e-08
1.09174e-08
1.08917e-08
1.08612e-08
1.08376e-08
1.08237e-08
1.0814e-08
1.08021e-08
1.0784e-08
1.0766e-08
1.07561e-08
1.07515e-08
1.07442e-08
1.07318e-08
1.07233e-08
1.07211e-08
1.07205e-08
1.07155e-08
1.07096e-08
1.07086e-08
1.07117e-08
1.07136e-08
1.07119e-08
1.07117e-08
1.07162e-08
1.07224e-08
1.07263e-08
1.07272e-08
1.07275e-08
1.07294e-08
1.07326e-08
1.07361e-08
1.07383e-08
1.07387e-08
1.07392e-08
1.07409e-08
1.07418e-08
1.07393e-08
1.07353e-08
1.07342e-08
1.07364e-08
1.07377e-08
1.07359e-08
1.07333e-08
1.07315e-08
1.07292e-08
1.07254e-08
1.07211e-08
1.07185e-08
1.07169e-08
1.07127e-08
1.07052e-08
1.06987e-08
1.06968e-08
1.06979e-08
1.06963e-08
1.06897e-08
1.06805e-08
1.06736e-08
1.0672e-08
1.06717e-08
1.06676e-08
1.06602e-08
1.0655e-08
1.06524e-08
1.06495e-08
1.06442e-08
1.06356e-08
1.06283e-08
1.0625e-08
1.06243e-08
1.06242e-08
1.06198e-08
1.06104e-08
1.06015e-08
1.05973e-08
1.05965e-08
1.05952e-08
1.05922e-08
1.0588e-08
1.05816e-08
1.05749e-08
1.0572e-08
1.0572e-08
1.05714e-08
1.05683e-08
1.05623e-08
1.05571e-08
1.05563e-08
1.05587e-08
1.05602e-08
1.05597e-08
1.05586e-08
1.05581e-08
1.05579e-08
1.05584e-08
1.05594e-08
1.05591e-08
1.05622e-08
1.05684e-08
1.05709e-08
1.05701e-08
1.0571e-08
1.05745e-08
1.05788e-08
1.05805e-08
1.05823e-08
1.05849e-08
1.05859e-08
1.05857e-08
1.05866e-08
1.05885e-08
1.05888e-08
1.05858e-08
1.05827e-08
1.05819e-08
1.05829e-08
1.05835e-08
1.05827e-08
1.05785e-08
1.0571e-08
1.05649e-08
1.05622e-08
1.05615e-08
1.05609e-08
1.05576e-08
1.05521e-08
1.05459e-08
1.05405e-08
1.05364e-08
1.05321e-08
1.05258e-08
1.05212e-08
1.052e-08
1.05154e-08
1.05074e-08
1.0499e-08
1.04921e-08
1.04871e-08
1.04833e-08
1.04786e-08
1.04724e-08
1.04646e-08
1.0456e-08
1.04496e-08
1.04453e-08
1.044e-08
1.04335e-08
1.04268e-08
1.04199e-08
1.04134e-08
1.04074e-08
1.04014e-08
1.03951e-08
1.0388e-08
1.03816e-08
1.03755e-08
1.03693e-08
1.03624e-08
1.03545e-08
1.03489e-08
1.03433e-08
1.03369e-08
1.03299e-08
1.03228e-08
1.03162e-08
1.03099e-08
1.03036e-08
1.02968e-08
1.02901e-08
1.0284e-08
1.02779e-08
1.02716e-08
1.02646e-08
1.02578e-08
1.02526e-08
1.02468e-08
1.02401e-08
1.02332e-08
1.02274e-08
1.02222e-08
1.02166e-08
1.02108e-08
1.02049e-08
1.0199e-08
1.01934e-08
1.01879e-08
1.01827e-08
1.01778e-08
1.01729e-08
1.01678e-08
1.01627e-08
1.01582e-08
1.01542e-08
1.015e-08
1.01457e-08
1.01413e-08
1.0137e-08
1.01334e-08
1.01299e-08
1.01265e-08
1.01227e-08
1.0119e-08
1.01161e-08
1.01132e-08
1.01101e-08
1.0107e-08
1.0104e-08
1.01015e-08
1.00988e-08
1.00962e-08
1.00936e-08
1.00912e-08
1.00888e-08
1.00864e-08
1.00842e-08
1.00818e-08
1.00797e-08
1.00777e-08
1.00756e-08
1.00736e-08
1.00716e-08
1.00694e-08
1.00675e-08
1.00656e-08
1.00637e-08
1.00618e-08
1.006e-08
1.00582e-08
1.00565e-08
1.00548e-08
1.00531e-08
1.00513e-08
1.00495e-08
1.00479e-08
1.00463e-08
1.00448e-08
1.00431e-08
1.00415e-08
1.004e-08
1.00384e-08
1.0037e-08
1.00354e-08
1.00339e-08
1.00323e-08
1.0031e-08
1.00295e-08
1.0028e-08
1.00267e-08
1.00253e-08
1.0024e-08
1.00225e-08
1.00212e-08
1.00198e-08
1.00186e-08
1.00173e-08
1.00162e-08
1.00148e-08
1.00138e-08
1.00124e-08
1.00113e-08
1.00102e-08
1.0009e-08
1.0008e-08
1.00066e-08
1.00057e-08
1.00045e-08
1.00032e-08
1.00027e-08
1.00013e-08
1.00016e-08
1.00009e-08
1.00013e-08
9.99989e-09
1.00099e-08
1.00061e-08
1.00122e-08
1.00192e-08
1.00555e-08
1.00529e-08
1.00211e-08
1.0018e-08
1.00244e-08
1.00175e-08
1.00028e-08
1.00004e-08
9.99461e-09
9.99141e-09
9.9896e-09
9.98857e-09
9.98787e-09
9.98787e-09
9.99518e-09
9.9926e-09
9.99504e-09
9.99768e-09
1.00128e-08
1.00114e-08
9.99793e-09
9.99733e-09
9.99866e-09
9.9951e-09
9.98539e-09
9.98585e-09
9.98388e-09
9.98331e-09
9.97928e-09
9.9829e-09
9.97786e-09
9.97974e-09
9.98593e-09
1.00168e-08
1.00169e-08
1.0057e-08
1.006e-08
1.01077e-08
1.01163e-08
1.01482e-08
1.0184e-08
1.01815e-08
1.0177e-08
1.02361e-08
1.01811e-08
1.01232e-08
1.00914e-08
1.00667e-08
1.00496e-08
1.00367e-08
1.00266e-08
1.00185e-08
1.0012e-08
1.00068e-08
1.00027e-08
9.99921e-09
9.99632e-09
9.99395e-09
9.99205e-09
9.9905e-09
9.98921e-09
9.98811e-09
9.98715e-09
9.98631e-09
9.98559e-09
9.98497e-09
9.98445e-09
9.98403e-09
9.98367e-09
9.98345e-09
9.98332e-09
9.98322e-09
9.98315e-09
9.98311e-09
9.98306e-09
9.98301e-09
9.98295e-09
9.98292e-09
9.98292e-09
9.98293e-09
9.98291e-09
9.98281e-09
9.98264e-09
9.98244e-09
9.98217e-09
9.98187e-09
9.98159e-09
9.98135e-09
9.98116e-09
9.98101e-09
9.98089e-09
9.98078e-09
9.98069e-09
9.98064e-09
9.98058e-09
9.98043e-09
9.98015e-09
9.9798e-09
9.97953e-09
9.97942e-09
9.97931e-09
9.97894e-09
9.97835e-09
9.97774e-09
9.97744e-09
9.97773e-09
9.97799e-09
9.97758e-09
9.97683e-09
9.97645e-09
9.97687e-09
9.97738e-09
9.97698e-09
9.97639e-09
9.97652e-09
9.97696e-09
9.97637e-09
9.97544e-09
9.97547e-09
9.97986e-09
1.00035e-08
1.0029e-08
1.00661e-08
1.0019e-08
1.02203e-08
1.07603e-08
1.36315e-08
2.02615e-08
2.63256e-08
2.85019e-08
2.73179e-08
2.47839e-08
2.23684e-08
2.04608e-08
1.89939e-08
1.78379e-08
1.69792e-08
1.64407e-08
1.62706e-08
1.62937e-08
1.6161e-08
1.56602e-08
1.50784e-08
1.47448e-08
1.47265e-08
1.48724e-08
1.49905e-08
1.50629e-08
1.5106e-08
1.49271e-08
1.45215e-08
1.41072e-08
1.3945e-08
1.39436e-08
1.38597e-08
1.3512e-08
1.32522e-08
1.32761e-08
1.35384e-08
1.37021e-08
1.34485e-08
1.28543e-08
1.2413e-08
1.23251e-08
1.25108e-08
1.26833e-08
1.26125e-08
1.23381e-08
1.20128e-08
1.18069e-08
1.17394e-08
1.1735e-08
1.16906e-08
1.15877e-08
1.15432e-08
1.16324e-08
1.17752e-08
1.18389e-08
1.17954e-08
1.1706e-08
1.16947e-08
1.18113e-08
1.19772e-08
1.2076e-08
1.211e-08
1.21758e-08
1.23592e-08
1.26673e-08
1.30022e-08
1.33009e-08
1.35738e-08
1.3753e-08
1.38298e-08
1.38177e-08
1.37473e-08
1.36485e-08
1.35396e-08
1.3437e-08
1.33461e-08
1.32629e-08
1.31804e-08
1.30843e-08
1.29854e-08
1.28639e-08
1.28167e-08
1.25562e-08
1.23451e-08
1.20986e-08
1.17107e-08
1.12658e-08
1.08158e-08
1.04793e-08
1.02982e-08
1.0253e-08
1.03038e-08
1.03972e-08
1.05102e-08
1.06336e-08
1.07326e-08
1.07656e-08
1.07244e-08
1.06247e-08
1.05063e-08
1.04001e-08
1.03185e-08
1.02621e-08
1.02278e-08
1.02196e-08
1.02545e-08
1.01993e-08
1.01569e-08
1.01726e-08
1.01847e-08
1.0141e-08
1.01115e-08
1.01157e-08
1.01116e-08
1.01145e-08
1.01175e-08
1.01172e-08
1.01138e-08
1.01045e-08
1.00933e-08
1.00853e-08
1.00935e-08
1.01223e-08
1.01457e-08
1.01325e-08
1.0117e-08
1.01223e-08
1.01083e-08
1.00976e-08
1.00965e-08
1.00908e-08
1.00884e-08
1.00874e-08
1.00839e-08
1.00817e-08
1.00809e-08
1.00802e-08
1.00791e-08
1.0078e-08
1.0077e-08
1.00755e-08
1.00741e-08
1.00727e-08
1.00714e-08
1.00703e-08
1.00689e-08
1.00674e-08
1.00661e-08
1.00654e-08
1.00648e-08
1.0064e-08
1.00629e-08
1.00616e-08
1.00607e-08
1.00602e-08
1.00599e-08
1.00595e-08
1.00587e-08
1.0058e-08
1.00578e-08
1.00577e-08
1.00574e-08
1.0057e-08
1.00566e-08
1.00566e-08
1.00567e-08
1.00565e-08
1.00562e-08
1.00561e-08
1.00563e-08
1.00563e-08
1.00561e-08
1.00559e-08
1.0056e-08
1.00562e-08
1.00563e-08
1.00561e-08
1.00559e-08
1.00558e-08
1.00559e-08
1.00559e-08
1.00558e-08
1.00557e-08
1.00556e-08
1.00556e-08
1.00555e-08
1.00551e-08
1.00547e-08
1.00544e-08
1.00545e-08
1.00544e-08
1.00542e-08
1.0054e-08
1.00538e-08
1.00535e-08
1.00531e-08
1.00527e-08
1.00524e-08
1.00522e-08
1.00519e-08
1.00513e-08
1.00508e-08
1.00506e-08
1.00506e-08
1.00504e-08
1.00499e-08
1.00493e-08
1.00488e-08
1.00487e-08
1.00485e-08
1.00482e-08
1.00477e-08
1.00473e-08
1.00471e-08
1.00468e-08
1.00464e-08
1.00459e-08
1.00454e-08
1.00452e-08
1.00451e-08
1.0045e-08
1.00447e-08
1.00442e-08
1.00436e-08
1.00434e-08
1.00433e-08
1.00432e-08
1.0043e-08
1.00428e-08
1.00424e-08
1.00421e-08
1.0042e-08
1.0042e-08
1.0042e-08
1.00418e-08
1.00416e-08
1.00413e-08
1.00412e-08
1.00414e-08
1.00415e-08
1.00416e-08
1.00416e-08
1.00415e-08
1.00415e-08
1.00416e-08
1.00416e-08
1.00417e-08
1.00418e-08
1.00422e-08
1.00424e-08
1.00423e-08
1.00423e-08
1.00425e-08
1.00427e-08
1.00429e-08
1.0043e-08
1.00431e-08
1.00432e-08
1.00432e-08
1.00433e-08
1.00434e-08
1.00434e-08
1.00431e-08
1.0043e-08
1.0043e-08
1.00431e-08
1.00431e-08
1.00431e-08
1.00428e-08
1.00424e-08
1.00421e-08
1.00421e-08
1.00421e-08
1.0042e-08
1.00418e-08
1.00415e-08
1.00412e-08
1.0041e-08
1.00408e-08
1.00406e-08
1.00403e-08
1.00402e-08
1.00402e-08
1.004e-08
1.00396e-08
1.00392e-08
1.00388e-08
1.00386e-08
1.00384e-08
1.00382e-08
1.00379e-08
1.00375e-08
1.00371e-08
1.00368e-08
1.00365e-08
1.00363e-08
1.00359e-08
1.00356e-08
1.00353e-08
1.0035e-08
1.00347e-08
1.00344e-08
1.00341e-08
1.00337e-08
1.00334e-08
1.00331e-08
1.00328e-08
1.00324e-08
1.0032e-08
1.00318e-08
1.00315e-08
1.00311e-08
1.00308e-08
1.00304e-08
1.00301e-08
1.00298e-08
1.00295e-08
1.00291e-08
1.00288e-08
1.00285e-08
1.00282e-08
1.00279e-08
1.00275e-08
1.00272e-08
1.0027e-08
1.00267e-08
1.00264e-08
1.00261e-08
1.00258e-08
1.00255e-08
1.00253e-08
1.0025e-08
1.00248e-08
1.00245e-08
1.00243e-08
1.00241e-08
1.00238e-08
1.00236e-08
1.00234e-08
1.00232e-08
1.0023e-08
1.00228e-08
1.00227e-08
1.00225e-08
1.00223e-08
1.00222e-08
1.0022e-08
1.00218e-08
1.00217e-08
1.00216e-08
1.00214e-08
1.00213e-08
1.00211e-08
1.0021e-08
1.00209e-08
1.00208e-08
1.00207e-08
1.00205e-08
1.00204e-08
1.00203e-08
1.00202e-08
1.00201e-08
1.002e-08
1.00199e-08
1.00198e-08
1.00197e-08
1.00196e-08
1.00195e-08
1.00195e-08
1.00194e-08
1.00193e-08
1.00192e-08
1.00191e-08
1.0019e-08
1.0019e-08
1.00189e-08
1.00188e-08
1.00187e-08
1.00187e-08
1.00186e-08
1.00185e-08
1.00184e-08
1.00183e-08
1.00183e-08
1.00182e-08
1.00181e-08
1.00181e-08
1.0018e-08
1.00179e-08
1.00178e-08
1.00178e-08
1.00177e-08
1.00176e-08
1.00175e-08
1.00175e-08
1.00174e-08
1.00173e-08
1.00172e-08
1.00172e-08
1.00171e-08
1.0017e-08
1.00169e-08
1.00168e-08
1.00168e-08
1.00167e-08
1.00166e-08
1.00165e-08
1.00164e-08
1.00163e-08
1.00163e-08
1.00162e-08
1.00161e-08
1.00162e-08
1.00161e-08
1.00161e-08
1.00159e-08
1.00163e-08
1.00161e-08
1.00162e-08
1.00164e-08
1.00167e-08
1.00166e-08
1.00165e-08
1.00161e-08
1.00148e-08
1.00151e-08
1.00164e-08
1.00168e-08
1.00169e-08
1.00165e-08
1.00167e-08
1.00166e-08
1.00161e-08
1.00156e-08
1.00153e-08
1.00152e-08
1.00155e-08
1.0015e-08
1.00153e-08
1.00153e-08
1.00151e-08
1.00148e-08
1.00142e-08
1.00143e-08
1.0015e-08
1.0015e-08
1.0015e-08
1.00149e-08
1.0015e-08
1.00149e-08
1.00148e-08
1.00145e-08
1.00143e-08
1.00141e-08
1.00144e-08
1.00139e-08
1.0014e-08
1.00146e-08
1.00148e-08
1.00148e-08
1.00148e-08
1.00174e-08
1.00181e-08
1.00202e-08
1.00204e-08
1.00199e-08
1.00248e-08
1.00271e-08
1.00262e-08
1.00295e-08
1.00259e-08
1.00198e-08
1.00162e-08
1.00144e-08
1.00131e-08
1.0012e-08
1.00112e-08
1.00106e-08
1.001e-08
1.00095e-08
1.0009e-08
1.00087e-08
1.00083e-08
1.0008e-08
1.00079e-08
1.0008e-08
1.00081e-08
1.00083e-08
1.00085e-08
1.00087e-08
1.00088e-08
1.00089e-08
1.0009e-08
1.00092e-08
1.00093e-08
1.00095e-08
1.00096e-08
1.00098e-08
1.00099e-08
1.001e-08
1.001e-08
1.001e-08
1.001e-08
1.001e-08
1.001e-08
1.00101e-08
1.00103e-08
1.00104e-08
1.00106e-08
1.00106e-08
1.00107e-08
1.00106e-08
1.00106e-08
1.00106e-08
1.00106e-08
1.00106e-08
1.00106e-08
1.00105e-08
1.00105e-08
1.00105e-08
1.00105e-08
1.00106e-08
1.00107e-08
1.00107e-08
1.00106e-08
1.00104e-08
1.00102e-08
1.00101e-08
1.00099e-08
1.00098e-08
1.00099e-08
1.00101e-08
1.00102e-08
1.001e-08
1.00097e-08
1.00097e-08
1.00099e-08
1.00102e-08
1.00099e-08
1.00095e-08
1.00095e-08
1.00096e-08
1.00096e-08
1.00094e-08
1.00093e-08
1.00096e-08
1.00097e-08
1.00113e-08
1.00116e-08
1.00134e-08
1.00089e-08
1.0142e-08
1.05992e-08
1.22504e-08
1.52805e-08
1.67538e-08
1.66712e-08
1.57104e-08
1.46314e-08
1.3761e-08
1.31118e-08
1.26259e-08
1.22541e-08
1.1985e-08
1.18145e-08
1.1741e-08
1.17117e-08
1.16437e-08
1.14987e-08
1.13519e-08
1.12686e-08
1.1248e-08
1.12499e-08
1.12456e-08
1.12508e-08
1.12754e-08
1.12644e-08
1.117e-08
1.10299e-08
1.09308e-08
1.08916e-08
1.08736e-08
1.08217e-08
1.07657e-08
1.0743e-08
1.07658e-08
1.07867e-08
1.07406e-08
1.06301e-08
1.05395e-08
1.05084e-08
1.05286e-08
1.05536e-08
1.05414e-08
1.04894e-08
1.04247e-08
1.03788e-08
1.0355e-08
1.03438e-08
1.03313e-08
1.03136e-08
1.0306e-08
1.03179e-08
1.03385e-08
1.03482e-08
1.03455e-08
1.03446e-08
1.03608e-08
1.03957e-08
1.0434e-08
1.04579e-08
1.04735e-08
1.05018e-08
1.05595e-08
1.06461e-08
1.07416e-08
1.08332e-08
1.09274e-08
1.10246e-08
1.11042e-08
1.11498e-08
1.11635e-08
1.11553e-08
1.11346e-08
1.11093e-08
1.10841e-08
1.10574e-08
1.10281e-08
1.09973e-08
1.09711e-08
1.09522e-08
1.09392e-08
1.09304e-08
1.0924e-08
1.09177e-08
1.0906e-08
1.08738e-08
1.08099e-08
1.0707e-08
1.05696e-08
1.04075e-08
1.02455e-08
1.01585e-08
1.01294e-08
1.0119e-08
1.01191e-08
1.01215e-08
1.01207e-08
1.01158e-08
1.01057e-08
1.00936e-08
1.00827e-08
1.00755e-08
1.00724e-08
1.00726e-08
1.0075e-08
1.00782e-08
1.00801e-08
1.00805e-08
1.00782e-08
1.00663e-08
1.00563e-08
1.00516e-08
1.00465e-08
1.0043e-08
1.00413e-08
1.00401e-08
1.00395e-08
1.00394e-08
1.00394e-08
1.00395e-08
1.00397e-08
1.00404e-08
1.00412e-08
1.00429e-08
1.00444e-08
1.00446e-08
1.00424e-08
1.00403e-08
1.00393e-08
1.00379e-08
1.00368e-08
1.00361e-08
1.00354e-08
1.0035e-08
1.00348e-08
1.00347e-08
1.00345e-08
1.00344e-08
1.00343e-08
1.00342e-08
1.0034e-08
1.00339e-08
1.00337e-08
1.00336e-08
1.00335e-08
1.00333e-08
1.00332e-08
1.00331e-08
1.0033e-08
1.00329e-08
1.00328e-08
1.00327e-08
1.00327e-08
1.00326e-08
1.00325e-08
1.00325e-08
1.00324e-08
1.00323e-08
1.00323e-08
1.00322e-08
1.00322e-08
1.00321e-08
1.0032e-08
1.0032e-08
1.00319e-08
1.00319e-08
1.00318e-08
1.00317e-08
1.00317e-08
1.00316e-08
1.00315e-08
1.00314e-08
1.00314e-08
1.00313e-08
1.00313e-08
1.00312e-08
1.00312e-08
1.00311e-08
1.00311e-08
1.0031e-08
1.00309e-08
1.00309e-08
1.00308e-08
1.00307e-08
1.00307e-08
1.00306e-08
1.00305e-08
1.00305e-08
1.00304e-08
1.00303e-08
1.00303e-08
1.00302e-08
1.00301e-08
1.00301e-08
1.003e-08
1.00299e-08
1.00298e-08
1.00297e-08
1.00296e-08
1.00295e-08
1.00294e-08
1.00294e-08
1.00293e-08
1.00292e-08
1.00291e-08
1.0029e-08
1.00289e-08
1.00288e-08
1.00288e-08
1.00287e-08
1.00286e-08
1.00285e-08
1.00284e-08
1.00283e-08
1.00282e-08
1.00281e-08
1.0028e-08
1.00279e-08
1.00278e-08
1.00278e-08
1.00277e-08
1.00276e-08
1.00275e-08
1.00274e-08
1.00274e-08
1.00273e-08
1.00272e-08
1.00271e-08
1.0027e-08
1.0027e-08
1.00269e-08
1.00268e-08
1.00268e-08
1.00267e-08
1.00266e-08
1.00265e-08
1.00264e-08
1.00264e-08
1.00263e-08
1.00263e-08
1.00262e-08
1.00261e-08
1.0026e-08
1.00259e-08
1.00259e-08
1.00258e-08
1.00257e-08
1.00256e-08
1.00256e-08
1.00255e-08
1.00254e-08
1.00253e-08
1.00253e-08
1.00252e-08
1.00252e-08
1.00251e-08
1.0025e-08
1.0025e-08
1.0025e-08
1.00249e-08
1.00249e-08
1.00248e-08
1.00247e-08
1.00247e-08
1.00246e-08
1.00246e-08
1.00246e-08
1.00245e-08
1.00244e-08
1.00244e-08
1.00243e-08
1.00243e-08
1.00242e-08
1.00242e-08
1.00241e-08
1.0024e-08
1.0024e-08
1.00239e-08
1.00238e-08
1.00238e-08
1.00237e-08
1.00236e-08
1.00236e-08
1.00235e-08
1.00235e-08
1.00234e-08
1.00233e-08
1.00233e-08
1.00232e-08
1.00231e-08
1.00231e-08
1.0023e-08
1.00229e-08
1.00228e-08
1.00228e-08
1.00227e-08
1.00226e-08
1.00226e-08
1.00225e-08
1.00224e-08
1.00223e-08
1.00223e-08
1.00222e-08
1.00221e-08
1.0022e-08
1.0022e-08
1.00219e-08
1.00218e-08
1.00218e-08
1.00217e-08
1.00216e-08
1.00215e-08
1.00214e-08
1.00214e-08
1.00213e-08
1.00212e-08
1.00211e-08
1.00211e-08
1.0021e-08
1.00209e-08
1.00209e-08
1.00208e-08
1.00207e-08
1.00207e-08
1.00206e-08
1.00205e-08
1.00205e-08
1.00204e-08
1.00203e-08
1.00203e-08
1.00202e-08
1.00201e-08
1.00201e-08
1.002e-08
1.002e-08
1.00199e-08
1.00198e-08
1.00198e-08
1.00197e-08
1.00196e-08
1.00196e-08
1.00195e-08
1.00195e-08
1.00194e-08
1.00193e-08
1.00193e-08
1.00192e-08
1.00191e-08
1.0019e-08
1.0019e-08
1.00189e-08
1.00188e-08
1.00187e-08
1.00187e-08
1.00186e-08
1.00185e-08
1.00185e-08
1.00184e-08
1.00183e-08
1.00182e-08
1.00182e-08
1.00181e-08
1.0018e-08
1.00179e-08
1.00179e-08
1.00178e-08
1.00178e-08
1.00177e-08
1.00176e-08
1.00176e-08
1.00175e-08
1.00174e-08
1.00174e-08
1.00173e-08
1.00173e-08
1.00172e-08
1.00172e-08
1.00171e-08
1.0017e-08
1.0017e-08
1.00169e-08
1.00169e-08
1.00168e-08
1.00167e-08
1.00167e-08
1.00166e-08
1.00166e-08
1.00165e-08
1.00164e-08
1.00164e-08
1.00163e-08
1.00163e-08
1.00162e-08
1.00162e-08
1.00161e-08
1.00161e-08
1.0016e-08
1.00159e-08
1.00159e-08
1.00158e-08
1.00157e-08
1.00157e-08
1.00156e-08
1.00155e-08
1.00155e-08
1.00154e-08
1.00153e-08
1.00153e-08
1.00153e-08
1.00152e-08
1.00152e-08
1.00151e-08
1.00155e-08
1.00153e-08
1.00155e-08
1.00156e-08
1.00156e-08
1.00155e-08
1.00155e-08
1.00152e-08
1.00141e-08
1.00143e-08
1.00153e-08
1.00152e-08
1.00152e-08
1.00152e-08
1.00153e-08
1.00152e-08
1.00146e-08
1.00142e-08
1.00149e-08
1.00148e-08
1.00147e-08
1.00146e-08
1.00145e-08
1.00145e-08
1.00143e-08
1.00142e-08
1.00139e-08
1.00139e-08
1.00141e-08
1.00141e-08
1.00141e-08
1.00141e-08
1.00141e-08
1.0014e-08
1.00139e-08
1.00137e-08
1.00135e-08
1.00135e-08
1.00139e-08
1.00136e-08
1.00145e-08
1.00133e-08
1.00127e-08
1.00136e-08
1.00136e-08
1.00162e-08
1.00169e-08
1.00191e-08
1.00181e-08
1.0016e-08
1.00165e-08
1.00162e-08
1.0016e-08
1.00159e-08
1.00157e-08
1.0015e-08
1.00148e-08
1.00141e-08
1.00135e-08
1.0013e-08
1.00126e-08
1.00121e-08
1.00117e-08
1.00113e-08
1.00109e-08
1.00106e-08
1.00103e-08
1.001e-08
1.00098e-08
1.00095e-08
1.00094e-08
1.00093e-08
1.00093e-08
1.00094e-08
1.00094e-08
1.00094e-08
1.00094e-08
1.00094e-08
1.00094e-08
1.00095e-08
1.00095e-08
1.00096e-08
1.00098e-08
1.00099e-08
1.001e-08
1.00101e-08
1.001e-08
1.001e-08
1.00099e-08
1.00098e-08
1.00098e-08
1.00098e-08
1.00099e-08
1.001e-08
1.00101e-08
1.00102e-08
1.00103e-08
1.00103e-08
1.00103e-08
1.00102e-08
1.00103e-08
1.00103e-08
1.00103e-08
1.00103e-08
1.00102e-08
1.00101e-08
1.00101e-08
1.00102e-08
1.00103e-08
1.00103e-08
1.00103e-08
1.00102e-08
1.001e-08
1.00097e-08
1.00096e-08
1.00096e-08
1.00096e-08
1.00097e-08
1.00098e-08
1.00098e-08
1.00095e-08
1.00095e-08
1.00096e-08
1.00099e-08
1.00098e-08
1.00093e-08
1.00093e-08
1.00092e-08
1.00093e-08
1.00092e-08
1.00092e-08
1.00092e-08
1.00095e-08
1.00097e-08
1.00106e-08
1.00109e-08
1.00127e-08
1.00085e-08
1.01023e-08
1.03405e-08
1.07905e-08
1.14652e-08
1.18268e-08
1.17803e-08
1.15399e-08
1.12795e-08
1.10754e-08
1.09134e-08
1.0786e-08
1.06856e-08
1.0611e-08
1.05615e-08
1.05353e-08
1.0518e-08
1.04929e-08
1.04535e-08
1.04155e-08
1.0392e-08
1.03807e-08
1.03739e-08
1.0367e-08
1.03649e-08
1.03694e-08
1.03686e-08
1.03458e-08
1.0307e-08
1.02747e-08
1.02579e-08
1.02507e-08
1.02412e-08
1.02287e-08
1.02194e-08
1.0217e-08
1.02161e-08
1.02061e-08
1.01865e-08
1.0169e-08
1.01603e-08
1.01595e-08
1.01599e-08
1.01559e-08
1.01467e-08
1.01352e-08
1.01252e-08
1.01179e-08
1.01127e-08
1.01087e-08
1.01053e-08
1.01039e-08
1.01049e-08
1.01071e-08
1.01084e-08
1.01088e-08
1.01108e-08
1.0116e-08
1.01239e-08
1.01319e-08
1.01379e-08
1.01435e-08
1.01527e-08
1.01678e-08
1.01878e-08
1.02098e-08
1.02343e-08
1.02634e-08
1.0294e-08
1.03211e-08
1.03451e-08
1.03632e-08
1.03743e-08
1.03821e-08
1.03878e-08
1.0392e-08
1.03948e-08
1.03973e-08
1.04016e-08
1.04102e-08
1.04233e-08
1.04398e-08
1.04588e-08
1.04792e-08
1.04994e-08
1.05178e-08
1.05334e-08
1.05452e-08
1.05501e-08
1.05454e-08
1.05243e-08
1.04829e-08
1.04167e-08
1.03261e-08
1.02268e-08
1.01522e-08
1.01122e-08
1.00873e-08
1.0072e-08
1.00634e-08
1.00563e-08
1.00518e-08
1.00495e-08
1.00487e-08
1.00495e-08
1.00517e-08
1.00552e-08
1.00595e-08
1.00644e-08
1.00691e-08
1.00726e-08
1.00729e-08
1.00686e-08
1.00599e-08
1.00518e-08
1.00467e-08
1.00428e-08
1.00399e-08
1.00379e-08
1.00366e-08
1.00361e-08
1.00361e-08
1.00364e-08
1.00369e-08
1.00376e-08
1.00385e-08
1.00395e-08
1.00406e-08
1.00411e-08
1.00407e-08
1.0039e-08
1.00374e-08
1.00363e-08
1.00353e-08
1.00345e-08
1.00339e-08
1.00336e-08
1.00332e-08
1.00329e-08
1.00328e-08
1.00326e-08
1.00325e-08
1.00324e-08
1.00323e-08
1.00322e-08
1.00321e-08
1.00321e-08
1.0032e-08
1.00319e-08
1.00319e-08
1.00318e-08
1.00318e-08
1.00318e-08
1.00317e-08
1.00317e-08
1.00317e-08
1.00317e-08
1.00317e-08
1.00317e-08
1.00316e-08
1.00316e-08
1.00316e-08
1.00315e-08
1.00315e-08
1.00314e-08
1.00314e-08
1.00313e-08
1.00312e-08
1.00312e-08
1.00311e-08
1.0031e-08
1.00309e-08
1.00308e-08
1.00307e-08
1.00307e-08
1.00306e-08
1.00305e-08
1.00304e-08
1.00304e-08
1.00303e-08
1.00302e-08
1.00302e-08
1.00301e-08
1.00301e-08
1.003e-08
1.00299e-08
1.00299e-08
1.00298e-08
1.00298e-08
1.00297e-08
1.00296e-08
1.00296e-08
1.00295e-08
1.00295e-08
1.00294e-08
1.00294e-08
1.00293e-08
1.00292e-08
1.00292e-08
1.00291e-08
1.0029e-08
1.00289e-08
1.00289e-08
1.00288e-08
1.00287e-08
1.00286e-08
1.00285e-08
1.00284e-08
1.00283e-08
1.00282e-08
1.00281e-08
1.0028e-08
1.00279e-08
1.00278e-08
1.00278e-08
1.00277e-08
1.00276e-08
1.00275e-08
1.00274e-08
1.00273e-08
1.00272e-08
1.00271e-08
1.00271e-08
1.0027e-08
1.00269e-08
1.00268e-08
1.00268e-08
1.00267e-08
1.00266e-08
1.00265e-08
1.00265e-08
1.00264e-08
1.00263e-08
1.00263e-08
1.00262e-08
1.00261e-08
1.00261e-08
1.0026e-08
1.0026e-08
1.00259e-08
1.00259e-08
1.00258e-08
1.00257e-08
1.00257e-08
1.00256e-08
1.00255e-08
1.00254e-08
1.00253e-08
1.00253e-08
1.00252e-08
1.00251e-08
1.0025e-08
1.00249e-08