/*--------------------------------*- C++ -*----------------------------------*\
| =========                 |                                                 |
| \\      /  F ield         | OpenFOAM: The Open Source CFD Toolbox           |
|  \\    /   O peration     | Version:  v2006                                 |
|   \\  /    A nd           | Website:  www.openfoam.com                      |
|    \\/     M anipulation  |                                                 |
\*---------------------------------------------------------------------------*/
FoamFile
{
    version     2.0;
    format      ascii;
    class       volScalarField;
    location    "4.3";
    object      nut;
}
// * * * * * * * * * * * * * * * * * * * * * * * * * * * * * * * * * * * * * //

dimensions      [0 2 -1 0 0 0 0];


internalField   nonuniform List<scalar> 
33000
(
8.71196e-10
3.47417e-10
3.5875e-10
5.39174e-10
9.04636e-10
1.493e-09
2.32939e-09
3.07896e-09
3.57514e-09
3.95878e-09
4.29316e-09
4.5987e-09
4.87359e-09
5.11628e-09
5.33426e-09
5.60655e-09
5.97602e-09
6.38587e-09
6.69723e-09
6.95805e-09
7.22679e-09
7.58902e-09
8.0422e-09
8.58864e-09
9.26395e-09
1.01173e-08
1.09312e-08
1.15592e-08
1.21618e-08
1.31801e-08
1.49544e-08
1.70343e-08
1.83396e-08
1.91427e-08
2.0385e-08
2.32166e-08
2.95147e-08
4.11789e-08
5.06697e-08
5.21696e-08
4.824e-08
4.40895e-08
4.19992e-08
3.94321e-08
3.67868e-08
3.32604e-08
2.86661e-08
2.44775e-08
2.13439e-08
1.9238e-08
1.79056e-08
1.66366e-08
1.49973e-08
1.34227e-08
1.21311e-08
1.12903e-08
1.07166e-08
1.01663e-08
9.40752e-09
8.54783e-09
7.88415e-09
7.39088e-09
7.00644e-09
6.72087e-09
6.39024e-09
5.97869e-09
5.61972e-09
5.35125e-09
5.22517e-09
5.2635e-09
5.50245e-09
6.06598e-09
7.29756e-09
9.96162e-09
1.55668e-08
1.88893e-08
1.41669e-08
9.65763e-09
1.03249e-08
1.90015e-08
2.0461e-08
1.70454e-08
1.73752e-08
1.46756e-08
1.54674e-08
1.44033e-08
1.4382e-08
1.39547e-08
1.34486e-08
1.26793e-08
1.23572e-08
1.16087e-08
1.09348e-08
1.0155e-08
9.52077e-09
9.56606e-09
9.75725e-09
1.16963e-08
1.61276e-08
3.59212e-08
6.55924e-08
4.86361e-08
4.20675e-08
4.21433e-08
3.09122e-08
4.38097e-08
6.3128e-08
6.77225e-08
6.70766e-08
5.40466e-08
5.24532e-08
4.83529e-08
4.4386e-08
3.77067e-08
3.20058e-08
3.01885e-08
3.43499e-08
5.96033e-08
4.76885e-08
3.43139e-08
2.76484e-08
2.69173e-08
2.63712e-08
2.49304e-08
2.39652e-08
2.1097e-08
1.89051e-08
1.76825e-08
1.67447e-08
1.58977e-08
1.51715e-08
1.43307e-08
1.36285e-08
1.30325e-08
1.25097e-08
1.20197e-08
1.15842e-08
1.11743e-08
1.07888e-08
1.04365e-08
1.01162e-08
9.82375e-09
9.55653e-09
9.30245e-09
9.0647e-09
8.84943e-09
8.6548e-09
8.47189e-09
8.29812e-09
8.13507e-09
7.98283e-09
7.84614e-09
7.7199e-09
7.59978e-09
7.4878e-09
7.38228e-09
7.28397e-09
7.19558e-09
7.1148e-09
7.03777e-09
6.96494e-09
6.89995e-09
6.84205e-09
6.78899e-09
6.73882e-09
6.69281e-09
6.65347e-09
6.62032e-09
6.59113e-09
6.56392e-09
6.54088e-09
6.52396e-09
6.51394e-09
6.509e-09
6.5067e-09
6.50655e-09
6.51224e-09
6.52622e-09
6.54537e-09
6.56859e-09
6.5964e-09
6.62808e-09
6.66739e-09
6.7152e-09
6.7669e-09
6.81982e-09
6.87916e-09
6.95176e-09
7.03378e-09
7.11981e-09
7.21225e-09
7.31319e-09
7.4244e-09
7.54702e-09
7.67817e-09
7.82131e-09
7.98202e-09
8.15619e-09
8.34371e-09
8.54556e-09
8.76711e-09
9.01935e-09
9.30576e-09
9.6178e-09
9.95096e-09
1.03169e-08
1.0726e-08
1.11946e-08
1.17335e-08
1.23325e-08
1.29862e-08
1.37211e-08
1.458e-08
1.55921e-08
1.6724e-08
1.79871e-08
1.94826e-08
2.12488e-08
2.33771e-08
2.60488e-08
2.92701e-08
3.30795e-08
3.78188e-08
4.38395e-08
5.16338e-08
5.48586e-08
5.49602e-08
5.50697e-08
5.51927e-08
5.53104e-08
5.53977e-08
5.546e-08
5.55005e-08
5.2068e-08
4.62388e-08
4.14856e-08
3.76489e-08
3.44616e-08
3.18291e-08
2.96512e-08
2.77813e-08
2.61342e-08
2.47006e-08
2.34698e-08
2.23836e-08
2.14079e-08
2.05118e-08
1.97156e-08
1.90302e-08
1.84091e-08
1.78221e-08
1.72837e-08
1.68058e-08
1.63689e-08
1.59585e-08
1.55863e-08
1.52454e-08
1.49247e-08
1.46286e-08
1.43513e-08
1.40965e-08
1.38634e-08
1.36434e-08
1.34339e-08
1.3235e-08
1.30516e-08
1.28838e-08
1.27304e-08
1.2587e-08
1.24456e-08
1.23093e-08
1.2181e-08
1.2064e-08
1.1959e-08
1.18586e-08
1.1761e-08
1.16668e-08
1.15793e-08
1.14997e-08
1.14227e-08
1.13449e-08
1.12748e-08
1.12141e-08
1.11542e-08
1.10954e-08
1.10376e-08
1.09827e-08
1.09311e-08
1.08832e-08
1.08392e-08
1.07973e-08
1.07562e-08
1.07147e-08
1.06746e-08
1.064e-08
1.06086e-08
1.05772e-08
1.0548e-08
1.05197e-08
1.04926e-08
1.0469e-08
1.04476e-08
1.0428e-08
1.04085e-08
1.03903e-08
1.03756e-08
1.03639e-08
1.03521e-08
1.03393e-08
1.03302e-08
1.03242e-08
1.03199e-08
1.0316e-08
1.03125e-08
1.03113e-08
1.03137e-08
1.03184e-08
1.03236e-08
1.033e-08
1.03394e-08
1.03518e-08
1.03662e-08
1.03798e-08
1.03949e-08
1.04143e-08
1.04362e-08
1.04579e-08
1.04793e-08
1.05037e-08
1.05307e-08
1.05596e-08
1.05899e-08
1.06206e-08
1.06521e-08
1.06851e-08
1.07193e-08
1.07551e-08
1.0793e-08
1.08323e-08
1.08715e-08
1.09114e-08
1.09539e-08
1.09989e-08
1.10453e-08
1.10931e-08
1.11406e-08
1.11891e-08
1.12404e-08
1.12946e-08
1.13505e-08
1.14053e-08
1.14619e-08
1.15224e-08
1.15852e-08
1.16496e-08
1.1714e-08
1.17813e-08
1.18527e-08
1.19259e-08
1.2e-08
1.20761e-08
1.21563e-08
1.22387e-08
1.23243e-08
1.24124e-08
1.2502e-08
1.25956e-08
1.2693e-08
1.27939e-08
1.28991e-08
1.30067e-08
1.31165e-08
1.32306e-08
1.33497e-08
1.3473e-08
1.3599e-08
1.373e-08
1.38662e-08
1.40082e-08
1.41559e-08
1.43081e-08
1.44635e-08
1.46255e-08
1.4795e-08
1.4974e-08
1.51608e-08
1.53566e-08
1.55608e-08
1.57725e-08
1.59944e-08
1.6232e-08
1.64773e-08
1.67293e-08
1.69947e-08
1.72813e-08
1.75567e-08
1.74016e-08
1.72495e-08
1.71001e-08
1.69537e-08
1.681e-08
1.66693e-08
1.65315e-08
1.63965e-08
1.62648e-08
1.6136e-08
1.60103e-08
1.58878e-08
1.57679e-08
1.56516e-08
1.55376e-08
1.54272e-08
1.53184e-08
1.52129e-08
1.51104e-08
1.50086e-08
1.49095e-08
1.48124e-08
1.47121e-08
1.46196e-08
1.45355e-08
1.44409e-08
1.43629e-08
1.42742e-08
1.41395e-08
1.40639e-08
1.4031e-08
1.39013e-08
1.39727e-08
1.3986e-08
1.43369e-08
1.42912e-08
1.44216e-08
1.4401e-08
1.44439e-08
1.44192e-08
1.44321e-08
1.44117e-08
1.44128e-08
1.43866e-08
1.43725e-08
1.43426e-08
1.42699e-08
1.42435e-08
1.42377e-08
1.41606e-08
1.42261e-08
1.42332e-08
1.44409e-08
1.44271e-08
1.44777e-08
1.44653e-08
1.44622e-08
1.44421e-08
1.44267e-08
1.43947e-08
1.43644e-08
1.42973e-08
1.42548e-08
1.42303e-08
1.41499e-08
1.41486e-08
1.40609e-08
1.37648e-08
1.37329e-08
1.38057e-08
1.35542e-08
1.44128e-08
1.48402e-08
1.76613e-08
1.80017e-08
1.909e-08
1.95746e-08
2.00186e-08
2.03392e-08
2.05882e-08
2.07697e-08
2.05156e-08
2.02102e-08
1.99107e-08
1.96211e-08
1.93431e-08
1.90753e-08
1.88152e-08
1.85646e-08
1.83233e-08
1.80917e-08
1.78695e-08
1.76557e-08
1.74495e-08
1.72503e-08
1.70574e-08
1.68703e-08
1.66882e-08
1.6513e-08
1.63447e-08
1.618e-08
1.602e-08
1.58654e-08
1.57151e-08
1.55691e-08
1.54277e-08
1.52903e-08
1.51566e-08
1.50265e-08
1.49005e-08
1.47758e-08
1.4654e-08
1.45366e-08
1.44215e-08
1.43089e-08
1.41988e-08
1.40909e-08
1.3985e-08
1.38811e-08
1.37795e-08
1.36802e-08
1.35833e-08
1.3489e-08
1.33973e-08
1.33083e-08
1.32219e-08
1.3137e-08
1.30524e-08
1.29675e-08
1.2883e-08
1.28008e-08
1.2723e-08
1.26479e-08
1.25717e-08
1.2494e-08
1.24141e-08
1.23355e-08
1.22639e-08
1.21952e-08
1.21243e-08
1.20492e-08
1.19748e-08
1.19079e-08
1.18443e-08
1.17762e-08
1.17052e-08
1.16396e-08
1.15809e-08
1.15219e-08
1.14198e-08
1.12819e-08
1.16745e-08
1.03247e-08
1.1686e-08
4.58381e-10
9.74251e-10
4.68796e-09
8.55214e-09
1.18733e-08
1.17288e-08
1.15655e-08
1.10175e-08
1.14082e-08
1.17122e-08
1.19548e-08
1.20952e-08
1.21265e-08
1.24606e-08
1.32207e-08
1.38764e-08
1.41198e-08
1.38492e-08
1.32899e-08
1.2825e-08
1.28763e-08
1.36901e-08
1.45596e-08
1.48696e-08
1.37323e-08
1.21496e-08
1.16535e-08
1.25759e-08
1.43656e-08
1.51386e-08
1.36903e-08
1.22556e-08
1.20569e-08
1.28078e-08
1.32462e-08
1.30357e-08
1.22082e-08
1.18772e-08
1.23337e-08
1.21254e-08
1.19968e-08
1.13289e-08
1.03837e-08
1.05494e-08
1.10315e-08
1.129e-08
1.16379e-08
1.10875e-08
1.07753e-08
1.1416e-08
1.20139e-08
1.13606e-08
1.10423e-08
1.15605e-08
1.24431e-08
1.27266e-08
1.18029e-08
1.08852e-08
1.07005e-08
1.16306e-08
1.35899e-08
1.54851e-08
1.83019e-08
1.87529e-08
1.75074e-08
1.76271e-08
1.71413e-08
1.65127e-08
1.53274e-08
1.34641e-08
1.20604e-08
1.12456e-08
1.08909e-08
1.08775e-08
1.13035e-08
1.2149e-08
1.37946e-08
1.52975e-08
1.84819e-08
1.95834e-08
1.97083e-08
1.67333e-08
1.73253e-08
1.63693e-08
1.53436e-08
2.50918e-08
2.09632e-08
3.71598e-08
2.31275e-08
2.74065e-08
2.10836e-08
1.5612e-08
1.10149e-08
8.61248e-09
6.87123e-09
5.37327e-09
4.23402e-09
3.42618e-09
3.0759e-09
2.55956e-09
2.48557e-09
3.03268e-09
4.81636e-09
7.31759e-09
7.90714e-09
7.67754e-09
1.02385e-08
9.8753e-09
9.81552e-09
1.38281e-08
2.38831e-08
2.04684e-08
1.74104e-08
1.52301e-08
1.37611e-08
1.36659e-08
1.48569e-08
1.89117e-08
1.51048e-08
1.22063e-08
2.36044e-08
2.57541e-08
2.24994e-08
1.8051e-08
1.69078e-08
1.36456e-08
1.54133e-08
1.96242e-08
2.0319e-08
2.11183e-08
2.02445e-08
1.94773e-08
2.03694e-08
2.12943e-08
2.15644e-08
2.20756e-08
2.24649e-08
2.26097e-08
2.2784e-08
2.35302e-08
2.42422e-08
2.47928e-08
2.55346e-08
2.63233e-08
2.7495e-08
2.85436e-08
2.93749e-08
3.02875e-08
3.15615e-08
3.32598e-08
3.52046e-08
3.67895e-08
3.82012e-08
3.97567e-08
4.19397e-08
4.51392e-08
4.84037e-08
5.1308e-08
5.42636e-08
5.78874e-08
6.24769e-08
6.88273e-08
7.63948e-08
8.42846e-08
9.33126e-08
1.06668e-07
1.2918e-07
1.57391e-07
1.87247e-07
2.30105e-07
2.89947e-07
2.90445e-07
2.89427e-07
2.87725e-07
2.27226e-07
1.70664e-07
1.37423e-07
1.17315e-07
1.02779e-07
8.8492e-08
7.71962e-08
6.96972e-08
6.44047e-08
5.98611e-08
5.50799e-08
5.04304e-08
4.62978e-08
4.30287e-08
4.04623e-08
3.81129e-08
3.60402e-08
3.44065e-08
3.28005e-08
3.11355e-08
2.93886e-08
2.7681e-08
2.63652e-08
2.53686e-08
2.4557e-08
2.36163e-08
2.24829e-08
2.15456e-08
2.09125e-08
2.03822e-08
1.97323e-08
1.90705e-08
1.85283e-08
1.81371e-08
1.78547e-08
1.75808e-08
1.7261e-08
1.69514e-08
1.68118e-08
1.68052e-08
1.67969e-08
1.6757e-08
1.67318e-08
1.67725e-08
1.68928e-08
1.71053e-08
1.74517e-08
1.78258e-08
1.81302e-08
1.84105e-08
1.88465e-08
1.93771e-08
2.0002e-08
2.06911e-08
2.14051e-08
2.21237e-08
2.28879e-08
2.36674e-08
2.4566e-08
2.5628e-08
2.66563e-08
2.76202e-08
2.85859e-08
2.96466e-08
3.08753e-08
3.23073e-08
3.39084e-08
3.53866e-08
3.68065e-08
3.83749e-08
4.00685e-08
4.19956e-08
4.3891e-08
4.60316e-08
4.88123e-08
5.1614e-08
5.38729e-08
5.65591e-08
6.01936e-08
6.41228e-08
6.78497e-08
7.16225e-08
7.59784e-08
8.12689e-08
8.75314e-08
9.52641e-08
1.02771e-07
1.08978e-07
1.16928e-07
1.27095e-07
1.39394e-07
1.55135e-07
1.73723e-07
1.94559e-07
2.15888e-07
2.38179e-07
2.70332e-07
3.14307e-07
3.20383e-07
3.20249e-07
3.21018e-07
3.22193e-07
3.2284e-07
3.22783e-07
3.22894e-07
3.23853e-07
3.24077e-07
3.23114e-07
3.23466e-07
3.25161e-07
3.27237e-07
3.28662e-07
3.29031e-07
3.28776e-07
3.29047e-07
3.26245e-07
3.09886e-07
2.94721e-07
2.80386e-07
2.66999e-07
2.57039e-07
2.5073e-07
2.41738e-07
2.31789e-07
2.25464e-07
2.22268e-07
2.18235e-07
2.13218e-07
2.07489e-07
2.03025e-07
2.00666e-07
1.98579e-07
1.94894e-07
1.92238e-07
1.89362e-07
1.86378e-07
1.84684e-07
1.82456e-07
1.79723e-07
1.78311e-07
1.7686e-07
1.7502e-07
1.7299e-07
1.70876e-07
1.69305e-07
1.68008e-07
1.66617e-07
1.65164e-07
1.63323e-07
1.61112e-07
1.6006e-07
1.59159e-07
1.57902e-07
1.56371e-07
1.54653e-07
1.5323e-07
1.52225e-07
1.51142e-07
1.49864e-07
1.48739e-07
1.47694e-07
1.46724e-07
1.45509e-07
1.44357e-07
1.43301e-07
1.42286e-07
1.4147e-07
1.40505e-07
1.39353e-07
1.38616e-07
1.38031e-07
1.37262e-07
1.36366e-07
1.35647e-07
1.35054e-07
1.3447e-07
1.3386e-07
1.33175e-07
1.32761e-07
1.32321e-07
1.3185e-07
1.31528e-07
1.31258e-07
1.31096e-07
1.30702e-07
1.30165e-07
1.29897e-07
1.30238e-07
1.30334e-07
1.30044e-07
1.30091e-07
1.30005e-07
1.30044e-07
1.30416e-07
1.30567e-07
1.30726e-07
1.31101e-07
1.315e-07
1.31935e-07
1.32185e-07
1.326e-07
1.33065e-07
1.33667e-07
1.34489e-07
1.35062e-07
1.35551e-07
1.3626e-07
1.37088e-07
1.37926e-07
1.38604e-07
1.39267e-07
1.40496e-07
1.41516e-07
1.42446e-07
1.43556e-07
1.44729e-07
1.45917e-07
1.47119e-07
1.48203e-07
1.49403e-07
1.51007e-07
1.52594e-07
1.54018e-07
1.5569e-07
1.56942e-07
1.58935e-07
1.60445e-07
1.62655e-07
1.64055e-07
1.66488e-07
1.67761e-07
1.70718e-07
1.71642e-07
1.74888e-07
1.75887e-07
1.76469e-07
1.78994e-07
1.79716e-07
1.85872e-07
1.8741e-07
1.96414e-07
1.97918e-07
1.89323e-07
1.93955e-07
1.96216e-07
2.05304e-07
2.84568e-07
2.74964e-07
1.67846e-07
1.7048e-07
1.28807e-07
1.15518e-07
7.81853e-08
8.18024e-08
1.22517e-07
1.52387e-07
1.73854e-07
1.56983e-07
1.96834e-07
1.82962e-07
2.01206e-07
2.00296e-07
2.18326e-07
2.31079e-07
3.08574e-07
3.02716e-07
1.9721e-07
2.02936e-07
1.63794e-07
1.49617e-07
1.05793e-07
1.12243e-07
1.71266e-07
2.08094e-07
2.42282e-07
2.07061e-07
2.89168e-07
2.64289e-07
3.60958e-07
3.2734e-07
3.3974e-07
3.00338e-07
3.16712e-07
3.14594e-07
3.76941e-07
7.61379e-07
7.53962e-07
1.41846e-07
1.10483e-07
6.42246e-08
5.31511e-08
3.1827e-08
3.09371e-08
4.65206e-08
5.22952e-08
6.02161e-08
7.17236e-08
1.04821e-07
1.15074e-07
1.32698e-07
1.44671e-07
1.56084e-07
1.67504e-07
1.79149e-07
1.90535e-07
2.01573e-07
2.1249e-07
2.23272e-07
2.33718e-07
2.44022e-07
2.54499e-07
2.65368e-07
2.76421e-07
2.87365e-07
2.9802e-07
3.08208e-07
3.17716e-07
3.27191e-07
3.3709e-07
3.47259e-07
3.57107e-07
3.69221e-07
3.83315e-07
3.96715e-07
4.10414e-07
4.25017e-07
4.40739e-07
4.56949e-07
4.7306e-07
4.89314e-07
5.0687e-07
5.26699e-07
5.48269e-07
5.61777e-07
5.76072e-07
5.90852e-07
6.03785e-07
6.15275e-07
6.26919e-07
6.40422e-07
6.56808e-07
6.75827e-07
6.96482e-07
7.18344e-07
7.37942e-07
7.39125e-07
7.40216e-07
7.4095e-07
7.41136e-07
7.40898e-07
7.40742e-07
7.41251e-07
7.42685e-07
7.43699e-07
7.43429e-07
7.41549e-07
7.3875e-07
7.38172e-07
7.4128e-07
7.44121e-07
7.43177e-07
7.40243e-07
7.39584e-07
7.43711e-07
7.47351e-07
7.47066e-07
7.46469e-07
7.47797e-07
7.49536e-07
7.48681e-07
7.46052e-07
5.57275e-07
1.88689e-07
8.25168e-08
7.28952e-08
1.29799e-07
4.23346e-10
3.89022e-09
3.73929e-09
1.20655e-08
4.19899e-08
2.72611e-08
1.85945e-08
1.48385e-08
1.26188e-08
1.09153e-08
9.55839e-09
8.44492e-09
7.67999e-09
7.34261e-09
7.5866e-09
8.09485e-09
8.14813e-09
7.42509e-09
6.53731e-09
6.0256e-09
6.18793e-09
6.97959e-09
7.8722e-09
8.12502e-09
7.36224e-09
6.01596e-09
5.38853e-09
5.77221e-09
7.17723e-09
7.97484e-09
7.18665e-09
5.77373e-09
5.36871e-09
6.15017e-09
7.23853e-09
7.49598e-09
6.60889e-09
5.43805e-09
5.1825e-09
5.49465e-09
5.84785e-09
6.17361e-09
5.64886e-09
5.19323e-09
5.1583e-09
5.21708e-09
5.64416e-09
6.27266e-09
6.26399e-09
5.98686e-09
6.14988e-09
6.65718e-09
7.12917e-09
7.52753e-09
7.68546e-09
6.83393e-09
6.08525e-09
6.02864e-09
6.53699e-09
7.23877e-09
7.51776e-09
7.5769e-09
7.89771e-09
8.23804e-09
9.50465e-09
1.02736e-08
9.3626e-09
8.47719e-09
7.90005e-09
7.89682e-09
8.42636e-09
8.57567e-09
8.46898e-09
8.23993e-09
7.94756e-09
7.56822e-09
6.55881e-09
5.70242e-09
5.72948e-09
6.22923e-09
5.97523e-09
7.00428e-09
8.42641e-09
1.12695e-08
8.671e-09
7.23997e-09
8.29649e-09
1.6406e-08
7.66664e-09
1.87802e-08
1.07989e-08
1.21366e-08
1.11604e-08
9.99623e-09
6.72218e-09
5.95016e-09
5.36756e-09
5.32901e-09
4.70496e-09
3.69397e-09
2.72021e-09
2.32769e-09
1.88218e-09
1.81785e-09
1.94258e-09
2.65927e-09
3.7535e-09
5.76154e-09
6.39986e-09
7.78545e-09
8.43619e-09
8.17901e-09
1.27114e-08
2.05821e-08
1.33012e-08
1.04595e-08
9.51978e-09
1.07663e-08
1.45587e-08
2.17397e-08
2.32799e-08
1.34302e-08
9.40498e-09
1.51968e-08
2.26879e-08
2.08456e-08
1.71769e-08
1.59347e-08
1.2508e-08
1.41999e-08
1.8548e-08
1.95951e-08
2.10866e-08
1.97821e-08
1.87103e-08
1.79198e-08
1.84894e-08
1.99977e-08
2.0416e-08
2.15754e-08
2.19038e-08
2.2129e-08
2.28593e-08
2.38539e-08
2.48499e-08
2.58312e-08
2.6593e-08
2.76188e-08
2.89794e-08
3.06894e-08
3.23712e-08
3.34867e-08
3.46475e-08
3.6515e-08
3.89315e-08
4.18162e-08
4.45664e-08
4.69417e-08
4.99688e-08
5.38118e-08
5.75604e-08
6.17304e-08
6.80765e-08
7.66315e-08
8.55935e-08
9.47072e-08
1.09663e-07
1.3113e-07
1.55886e-07
1.77165e-07
1.92178e-07
2.2003e-07
2.40145e-07
2.11384e-07
1.68035e-07
1.37007e-07
1.18315e-07
1.03779e-07
8.97604e-08
7.76986e-08
6.93268e-08
6.37466e-08
5.95942e-08
5.47407e-08
4.9575e-08
4.54253e-08
4.24358e-08
3.99212e-08
3.73795e-08
3.51551e-08
3.34019e-08
3.18191e-08
3.02527e-08
2.8701e-08
2.7213e-08
2.58357e-08
2.46299e-08
2.35433e-08
2.27197e-08
2.19595e-08
2.11584e-08
2.04249e-08
1.9698e-08
1.90212e-08
1.84593e-08
1.79744e-08
1.75899e-08
1.73275e-08
1.70187e-08
1.66125e-08
1.62803e-08
1.60937e-08
1.60842e-08
1.60343e-08
1.59114e-08
1.59011e-08
1.59463e-08
1.60072e-08
1.61599e-08
1.63501e-08
1.65509e-08
1.68286e-08
1.7134e-08
1.74937e-08
1.80301e-08
1.84956e-08
1.88599e-08
1.9369e-08
2.00824e-08
2.08494e-08
2.164e-08
2.24242e-08
2.30685e-08
2.39019e-08
2.50449e-08
2.60399e-08
2.68716e-08
2.78961e-08
2.91276e-08
3.05228e-08
3.20162e-08
3.33824e-08
3.4457e-08
3.58198e-08
3.76426e-08
3.97145e-08
4.16956e-08
4.35478e-08
4.57488e-08
4.82803e-08
5.064e-08
5.32554e-08
5.66982e-08
6.04677e-08
6.38035e-08
6.68224e-08
7.08854e-08
7.60937e-08
8.24242e-08
8.95245e-08
9.6201e-08
1.02054e-07
1.09194e-07
1.19354e-07
1.30106e-07
1.4202e-07
1.58154e-07
1.7757e-07
1.98752e-07
2.19609e-07
2.48842e-07
2.90805e-07
3.37426e-07
3.89093e-07
4.47639e-07
5.44007e-07
6.75775e-07
7.8735e-07
8.80531e-07
8.5102e-07
6.821e-07
5.96127e-07
5.76035e-07
5.32426e-07
4.65232e-07
4.03173e-07
3.57486e-07
3.38978e-07
3.33073e-07
3.15163e-07
2.93274e-07
2.73706e-07
2.57064e-07
2.48299e-07
2.4751e-07
2.42362e-07
2.3126e-07
2.2087e-07
2.14385e-07
2.12134e-07
2.09769e-07
2.05233e-07
1.9823e-07
1.94783e-07
1.94967e-07
1.92563e-07
1.8764e-07
1.84105e-07
1.82998e-07
1.81282e-07
1.79209e-07
1.76681e-07
1.73796e-07
1.73063e-07
1.72234e-07
1.70345e-07
1.68074e-07
1.6619e-07
1.64942e-07
1.63909e-07
1.63407e-07
1.6163e-07
1.58797e-07
1.5749e-07
1.57025e-07
1.56092e-07
1.54624e-07
1.52898e-07
1.51593e-07
1.50726e-07
1.50184e-07
1.49052e-07
1.47281e-07
1.46161e-07
1.45348e-07
1.44482e-07
1.43313e-07
1.42257e-07
1.41073e-07
1.39822e-07
1.3925e-07
1.38763e-07
1.37971e-07
1.37387e-07
1.36593e-07
1.35463e-07
1.34576e-07
1.34068e-07
1.33661e-07
1.32749e-07
1.32098e-07
1.32027e-07
1.31651e-07
1.31094e-07
1.3034e-07
1.2994e-07
1.30284e-07
1.30359e-07
1.29627e-07
1.28731e-07
1.28643e-07
1.29294e-07
1.29568e-07
1.29174e-07
1.28759e-07
1.28721e-07
1.29338e-07
1.29948e-07
1.29861e-07
1.29948e-07
1.30174e-07
1.30578e-07
1.31212e-07
1.31527e-07
1.31611e-07
1.32065e-07
1.3313e-07
1.34223e-07
1.34628e-07
1.3499e-07
1.35421e-07
1.36388e-07
1.37233e-07
1.38019e-07
1.39074e-07
1.40252e-07
1.41245e-07
1.41891e-07
1.42989e-07
1.44336e-07
1.45875e-07
1.46431e-07
1.47551e-07
1.49168e-07
1.50862e-07
1.51998e-07
1.54261e-07
1.55686e-07
1.57201e-07
1.58267e-07
1.60197e-07
1.6159e-07
1.64362e-07
1.66182e-07
1.68648e-07
1.6996e-07
1.69439e-07
1.72043e-07
1.7242e-07
1.77863e-07
1.79594e-07
1.87251e-07
1.88818e-07
1.79989e-07
1.83924e-07
1.85795e-07
1.95312e-07
2.63477e-07
2.5356e-07
1.5966e-07
1.58875e-07
1.20831e-07
1.09842e-07
7.4824e-08
8.00565e-08
1.1802e-07
1.25486e-07
1.56482e-07
1.72398e-07
3.45524e-07
2.61274e-07
2.07553e-07
2.18642e-07
2.13298e-07
2.91198e-07
2.60634e-07
2.02544e-07
1.77616e-07
1.70938e-07
1.4748e-07
1.36164e-07
9.90758e-08
1.07123e-07
1.59867e-07
1.69174e-07
2.1e-07
2.23063e-07
4.44711e-07
3.5607e-07
3.41367e-07
3.27106e-07
2.83731e-07
2.79937e-07
2.46443e-07
2.53687e-07
3.13515e-07
3.7943e-06
8.84596e-07
1.33326e-07
1.00176e-07
5.71764e-08
4.71653e-08
3.13988e-08
3.28962e-08
4.97318e-08
5.1162e-08
5.99044e-08
7.01979e-08
1.21389e-07
1.39656e-07
1.70766e-07
1.68786e-07
1.55919e-07
1.5943e-07
1.66279e-07
1.75343e-07
1.85249e-07
1.95537e-07
2.05974e-07
2.16205e-07
2.25906e-07
2.35273e-07
2.44858e-07
2.55196e-07
2.66443e-07
2.78308e-07
2.90312e-07
3.02111e-07
3.13623e-07
3.24472e-07
3.33098e-07
3.4284e-07
3.53642e-07
3.65035e-07
3.76929e-07
3.89965e-07
4.03605e-07
4.16885e-07
4.29025e-07
4.39925e-07
4.49725e-07
4.59655e-07
4.71026e-07
4.84602e-07
5.0059e-07
5.18497e-07
5.38238e-07
5.58429e-07
5.76808e-07
5.92913e-07
6.07572e-07
6.22769e-07
6.40809e-07
6.62279e-07
6.85503e-07
7.07408e-07
7.26193e-07
7.43653e-07
7.64589e-07
7.93067e-07
8.28529e-07
8.64628e-07
8.92549e-07
9.1094e-07
9.23611e-07
9.29377e-07
9.27178e-07
9.22527e-07
9.31375e-07
9.78722e-07
1.06021e-06
1.11005e-06
1.08264e-06
1.0287e-06
1.04292e-06
1.17624e-06
1.29851e-06
1.20717e-06
1.07108e-06
1.08913e-06
1.2327e-06
1.21518e-06
1.07926e-06
1.155e-06
9.41896e-07
5.75582e-07
1.89948e-07
8.20148e-08
7.26374e-08
1.33261e-07
4.64992e-10
4.22805e-09
3.77234e-09
1.00864e-08
2.01645e-08
1.49675e-08
1.39847e-08
1.42897e-08
1.21198e-08
9.456e-09
7.43543e-09
6.21778e-09
5.58434e-09
5.32043e-09
5.3573e-09
5.58518e-09
5.53104e-09
5.1214e-09
4.89723e-09
4.9143e-09
5.12115e-09
5.34954e-09
5.42372e-09
5.48332e-09
5.67522e-09
5.55524e-09
5.12318e-09
4.87396e-09
5.03844e-09
5.26938e-09
5.39421e-09
5.03926e-09
4.65886e-09
4.71427e-09
5.25864e-09
5.80888e-09
5.61275e-09
4.67354e-09
4.13786e-09
4.14711e-09
4.68952e-09
5.53949e-09
5.57894e-09
4.77451e-09
4.1323e-09
4.05642e-09
4.52173e-09
5.31603e-09
5.73173e-09
5.36368e-09
5.18295e-09
5.79762e-09
6.7661e-09
6.86534e-09
6.54874e-09
6.06017e-09
5.69037e-09
5.79938e-09
6.13879e-09
5.95925e-09
5.49276e-09
5.26258e-09
5.38552e-09
6.30277e-09
7.85883e-09
8.04505e-09
7.02818e-09
5.49766e-09
4.64331e-09
4.62435e-09
4.97167e-09
5.39984e-09
5.98207e-09
7.12151e-09
8.51771e-09
8.58923e-09
7.09795e-09
5.7492e-09
5.07462e-09
4.80247e-09
4.48593e-09
4.53786e-09
4.64218e-09
4.34388e-09
5.25562e-09
5.98282e-09
6.97104e-09
6.64093e-09
6.61289e-09
4.79145e-09
7.935e-09
4.79021e-09
9.24125e-09
7.91427e-09
7.18733e-09
8.27521e-09
7.86414e-09
5.44025e-09
5.62327e-09
5.44529e-09
5.681e-09
4.96621e-09
3.81203e-09
2.73898e-09
2.26303e-09
1.85277e-09
1.73248e-09
1.79362e-09
1.98497e-09
2.85607e-09
5.41386e-09
6.209e-09
7.3125e-09
8.35452e-09
7.66008e-09
1.16607e-08
1.62606e-08
1.27047e-08
1.02915e-08
8.89076e-09
1.13552e-08
1.48008e-08
2.36356e-08
2.04971e-08
1.25159e-08
8.30801e-09
1.30567e-08
2.35182e-08
2.18149e-08
1.86005e-08
1.70435e-08
1.30632e-08
1.4911e-08
1.95424e-08
1.99794e-08
2.06722e-08
2.09044e-08
1.97041e-08
1.86801e-08
1.9689e-08
2.15997e-08
2.21582e-08
2.32188e-08
2.34359e-08
2.37856e-08
2.48772e-08
2.6363e-08
2.75886e-08
2.88023e-08
3.005e-08
3.14147e-08
3.27159e-08
3.41577e-08
3.62629e-08
3.86988e-08
4.08431e-08
4.29136e-08
4.53116e-08
4.87373e-08
5.26269e-08
5.58684e-08
5.91778e-08
6.44057e-08
7.22863e-08
8.11226e-08
8.81351e-08
9.76171e-08
1.13549e-07
1.31368e-07
1.42453e-07
1.48441e-07
1.57374e-07
1.67956e-07
1.58112e-07
1.36428e-07
1.17694e-07
1.04154e-07
9.25724e-08
8.07492e-08
7.24756e-08
6.71351e-08
6.2155e-08
5.68907e-08
5.17356e-08
4.71718e-08
4.34016e-08
4.09605e-08
3.89762e-08
3.68383e-08
3.47721e-08
3.28008e-08
3.08881e-08
2.9215e-08
2.78576e-08
2.67404e-08
2.56583e-08
2.44831e-08
2.33321e-08
2.23494e-08
2.16193e-08
2.10735e-08
2.04351e-08
1.96368e-08
1.88856e-08
1.83863e-08
1.81275e-08
1.785e-08
1.75181e-08
1.70734e-08
1.66096e-08
1.63546e-08
1.63079e-08
1.63446e-08
1.62063e-08
1.59905e-08
1.59709e-08
1.60845e-08
1.61974e-08
1.63416e-08
1.65229e-08
1.66164e-08
1.67652e-08
1.70833e-08
1.75324e-08
1.80711e-08
1.85183e-08
1.88258e-08
1.91698e-08
1.9742e-08
2.05343e-08
2.14002e-08
2.22084e-08
2.28071e-08
2.35385e-08
2.45524e-08
2.55785e-08
2.64789e-08
2.74721e-08
2.87734e-08
3.01435e-08
3.13726e-08
3.26191e-08
3.38007e-08
3.5256e-08
3.71261e-08
3.92421e-08
4.13303e-08
4.30869e-08
4.48379e-08
4.71223e-08
4.9675e-08
5.25075e-08
5.57357e-08
5.93511e-08
6.29069e-08
6.57673e-08
6.96882e-08
7.51446e-08
8.10048e-08
8.6449e-08
9.26078e-08
9.98855e-08
1.07621e-07
1.17401e-07
1.26621e-07
1.35592e-07
1.49356e-07
1.68722e-07
1.90578e-07
2.09363e-07
2.32504e-07
2.65672e-07
3.07807e-07
3.53399e-07
3.84928e-07
4.18669e-07
4.88945e-07
5.80871e-07
6.2953e-07
5.93379e-07
5.14657e-07
5.03279e-07
5.25201e-07
4.75026e-07
4.00798e-07
3.5707e-07
3.36128e-07
3.30278e-07
3.24216e-07
3.00929e-07
2.78133e-07
2.6369e-07
2.50553e-07
2.42885e-07
2.43372e-07
2.36685e-07
2.2597e-07
2.19783e-07
2.14642e-07
2.09608e-07
2.0547e-07
2.00498e-07
1.96102e-07
1.96093e-07
1.95029e-07
1.89719e-07
1.85256e-07
1.83369e-07
1.83611e-07
1.81289e-07
1.77542e-07
1.74862e-07
1.73774e-07
1.73736e-07
1.71849e-07
1.69101e-07
1.67424e-07
1.67055e-07
1.65423e-07
1.63292e-07
1.62893e-07
1.61466e-07
1.59068e-07
1.58292e-07
1.5687e-07
1.55449e-07
1.54911e-07
1.53453e-07
1.51924e-07
1.50851e-07
1.49984e-07
1.48909e-07
1.47511e-07
1.46584e-07
1.45645e-07
1.44541e-07
1.43138e-07
1.41983e-07
1.40908e-07
1.39906e-07
1.39278e-07
1.38593e-07
1.3799e-07
1.37324e-07
1.36579e-07
1.35722e-07
1.34593e-07
1.33724e-07
1.33153e-07
1.3231e-07
1.32116e-07
1.32243e-07
1.31424e-07
1.30594e-07
1.29936e-07
1.29833e-07
1.30127e-07
1.30014e-07
1.29477e-07
1.28832e-07
1.28642e-07
1.28828e-07
1.29152e-07
1.28854e-07
1.28462e-07
1.28691e-07
1.29403e-07
1.29719e-07
1.29564e-07
1.29639e-07
1.29802e-07
1.30205e-07
1.30918e-07
1.3133e-07
1.31484e-07
1.3194e-07
1.33053e-07
1.33799e-07
1.34103e-07
1.3459e-07
1.35228e-07
1.36196e-07
1.37023e-07
1.37859e-07
1.38949e-07
1.39897e-07
1.40841e-07
1.41707e-07
1.42647e-07
1.4407e-07
1.4544e-07
1.46508e-07
1.47493e-07
1.49359e-07
1.50467e-07
1.52054e-07
1.53853e-07
1.55608e-07
1.56728e-07
1.58694e-07
1.59976e-07
1.62684e-07
1.63979e-07
1.66115e-07
1.67333e-07
1.71944e-07
1.72073e-07
1.8069e-07
1.78881e-07
1.73279e-07
1.73624e-07
1.71059e-07
1.78721e-07
1.83013e-07
2.45292e-07
2.34374e-07
1.5312e-07
1.51721e-07
1.15218e-07
1.0435e-07
7.21951e-08
7.70635e-08
1.11298e-07
1.15056e-07
1.43738e-07
1.65606e-07
3.53336e-07
3.1118e-07
2.29055e-07
2.45854e-07
2.2899e-07
2.78292e-07
2.53572e-07
1.70865e-07
1.68423e-07
1.54574e-07
1.34392e-07
1.17709e-07
9.2253e-08
9.84307e-08
1.44901e-07
1.49645e-07
1.84253e-07
2.06454e-07
3.96601e-07
4.02866e-07
3.45178e-07
3.70179e-07
2.83287e-07
2.67716e-07
2.62138e-07
2.78651e-07
8.89317e-07
3.30083e-06
2.82825e-07
1.19064e-07
8.92193e-08
5.29951e-08
4.41827e-08
3.12956e-08
3.17888e-08
4.46266e-08
4.34456e-08
5.34032e-08
7.36857e-08
1.43391e-07
1.54714e-07
6.76782e-07
3.79859e-07
1.66131e-07
1.57743e-07
1.64271e-07
1.69124e-07
1.76828e-07
1.85841e-07
1.95032e-07
2.03417e-07
2.11572e-07
2.20207e-07
2.2901e-07
2.37267e-07
2.4516e-07
2.53466e-07
2.62612e-07
2.72427e-07
2.82661e-07
2.92621e-07
3.02048e-07
3.11938e-07
3.21941e-07
3.28846e-07
3.37953e-07
3.49442e-07
3.61895e-07
3.75637e-07
3.90488e-07
4.05098e-07
4.18684e-07
4.30651e-07
4.40926e-07
4.49596e-07
4.58559e-07
4.69728e-07
4.83688e-07
4.99987e-07
5.18183e-07
5.3674e-07
5.57467e-07
5.75229e-07
5.90352e-07
6.04985e-07
6.21448e-07
6.41544e-07
6.64418e-07
6.86861e-07
7.05227e-07
7.18958e-07
7.32795e-07
7.5361e-07
7.85417e-07
8.25398e-07
8.62596e-07
8.86145e-07
8.95242e-07
8.96996e-07
8.96987e-07
9.00556e-07
9.15327e-07
9.51318e-07
1.01905e-06
1.08603e-06
1.08533e-06
1.04731e-06
1.04295e-06
1.13642e-06
1.27317e-06
1.25762e-06
1.11597e-06
1.07744e-06
1.15706e-06
1.16891e-06
1.07175e-06
1.10324e-06
1.35369e-06
1.04323e-06
6.08659e-07
1.8759e-07
8.20947e-08
7.30928e-08
1.31551e-07
5.40155e-10
6.9274e-09
3.11097e-09
4.30248e-09
5.96975e-09
7.6044e-09
1.30673e-08
4.27852e-08
1.83771e-08
9.40816e-09
6.97089e-09
5.93581e-09
5.44958e-09
5.22856e-09
5.18281e-09
5.14676e-09
5.02089e-09
4.8135e-09
4.78435e-09
4.97079e-09
5.15519e-09
5.04934e-09
4.83642e-09
4.8078e-09
5.27817e-09
6.02112e-09
5.85015e-09
5.06878e-09
4.64943e-09
4.58398e-09
4.76606e-09
4.86594e-09
4.60256e-09
4.41333e-09
4.62615e-09
5.00985e-09
5.00066e-09
4.42405e-09
3.94501e-09
3.89578e-09
4.48662e-09
5.41754e-09
5.53126e-09
4.75312e-09
4.00006e-09
3.74103e-09
4.10435e-09
4.73722e-09
5.2494e-09
5.28424e-09
5.13169e-09
5.38746e-09
6.23313e-09
6.69578e-09
6.28262e-09
6.02288e-09
6.29976e-09
6.75325e-09
6.36205e-09
5.30924e-09
4.58058e-09
4.43022e-09
4.76835e-09
5.43836e-09
5.70718e-09
5.58095e-09
5.42181e-09
4.97549e-09
4.39615e-09
4.05355e-09
3.97053e-09
4.14343e-09
4.22134e-09
4.41069e-09
4.90967e-09
5.53046e-09
6.21247e-09
6.24932e-09
6.10232e-09
5.55933e-09
4.93616e-09
4.58066e-09
4.43747e-09
4.27058e-09
4.22738e-09
4.45026e-09
4.19134e-09
4.23329e-09
4.81619e-09
5.54901e-09
6.83241e-09
5.44787e-09
5.10637e-09
5.45941e-09
3.85877e-09
5.8323e-09
6.12883e-09
5.92378e-09
8.69969e-09
1.02758e-08
7.23336e-09
7.55029e-09
6.91422e-09
6.74191e-09
6.01128e-09
4.17451e-09
2.97564e-09
2.28002e-09
1.89923e-09
1.74914e-09
1.72166e-09
1.8554e-09
2.88013e-09
5.10126e-09
5.94901e-09
6.78247e-09
7.87012e-09
7.32125e-09
1.18969e-08
1.70516e-08
1.33393e-08
1.0549e-08
9.06162e-09
1.16819e-08
1.5115e-08
2.31603e-08
1.79788e-08
1.10372e-08
7.31482e-09
1.13842e-08
2.38699e-08
2.18168e-08
2.09411e-08
2.09366e-08
1.70372e-08
1.33976e-08
1.44393e-08
2.01202e-08
2.07919e-08
2.22823e-08
2.13466e-08
2.02521e-08
2.16347e-08
2.34335e-08
2.38005e-08
2.5028e-08
2.58507e-08
2.68252e-08
2.82024e-08
2.95016e-08
3.05892e-08
3.21845e-08
3.38815e-08
3.5838e-08
3.82027e-08
4.00373e-08
4.16959e-08
4.38021e-08
4.68815e-08
5.08937e-08
5.4267e-08
5.74895e-08
6.17016e-08
6.75363e-08
7.4188e-08
7.982e-08
8.69102e-08
9.87197e-08
1.09999e-07
1.16999e-07
1.20997e-07
1.23502e-07
1.28551e-07
1.25405e-07
1.13266e-07
1.00436e-07
8.965e-08
8.14977e-08
7.38406e-08
6.81707e-08
6.4109e-08
5.88675e-08
5.30171e-08
4.86358e-08
4.48464e-08
4.17023e-08
3.96618e-08
3.79171e-08
3.61603e-08
3.4033e-08
3.17233e-08
2.9885e-08
2.83894e-08
2.71245e-08
2.61625e-08
2.53471e-08
2.42793e-08
2.31628e-08
2.21469e-08
2.13714e-08
2.0853e-08
2.02914e-08
1.96839e-08
1.90037e-08
1.84879e-08
1.8241e-08
1.7987e-08
1.75993e-08
1.71203e-08
1.67911e-08
1.66248e-08
1.66107e-08
1.66334e-08
1.64203e-08
1.61572e-08
1.61102e-08
1.621e-08
1.63889e-08
1.65933e-08
1.67092e-08
1.66978e-08
1.6788e-08
1.7123e-08
1.76197e-08
1.80686e-08
1.84282e-08
1.87548e-08
1.91283e-08
1.95947e-08
2.01859e-08
2.09745e-08
2.18645e-08
2.2638e-08
2.3317e-08
2.40291e-08
2.49688e-08
2.60529e-08
2.71029e-08
2.82369e-08
2.95135e-08
3.0662e-08
3.18525e-08
3.33201e-08
3.49363e-08
3.65901e-08
3.84992e-08
4.05998e-08
4.22337e-08
4.3761e-08
4.60373e-08
4.89014e-08
5.18271e-08
5.45728e-08