/*--------------------------------*- C++ -*----------------------------------*\
| =========                 |                                                 |
| \\      /  F ield         | OpenFOAM: The Open Source CFD Toolbox           |
|  \\    /   O peration     | Version:  v2006                                 |
|   \\  /    A nd           | Website:  www.openfoam.com                      |
|    \\/     M anipulation  |                                                 |
\*---------------------------------------------------------------------------*/
FoamFile
{
    version     2.0;
    format      ascii;
    class       volScalarField;
    location    "4.3";
    object      p;
}
// * * * * * * * * * * * * * * * * * * * * * * * * * * * * * * * * * * * * * //

dimensions      [1 -1 -2 0 0 0 0];


internalField   nonuniform List<scalar> 
33000
(
8213.58
8202.48
8188.64
8177.65
8170.45
8167.87
8163.74
8157.03
8149.86
8142.48
8134.87
8127.12
8119.25
8111.28
8103.2
8095.03
8086.76
8078.39
8069.91
8061.31
8052.62
8043.83
8034.94
8025.96
8016.88
8007.73
7998.47
7989.11
7979.65
7970.12
7960.52
7950.83
7941.06
7931.19
7921.26
7911.27
7901.21
7891.09
7880.89
7870.62
7860.3
7849.94
7839.54
7829.09
7818.58
7808.04
7797.47
7786.87
7776.25
7765.62
7754.97
7744.32
7733.68
7723.05
7712.44
7701.86
7691.29
7680.75
7670.25
7659.8
7649.41
7639.08
7628.81
7618.61
7608.52
7598.54
7588.68
7578.93
7569.25
7559.64
7550.09
7540.58
7531.17
7521.86
7512.82
7504.55
7497.07
7491.61
7483.73
7468.78
7460.94
7450.5
7440.7
7431.11
7420.95
7410.28
7400.48
7390.29
7380.68
7370.68
7361.15
7351.39
7341.83
7332.38
7322.82
7313.28
7303.51
7293.49
7283.69
7273.86
7264.24
7254.87
7245.82
7237.28
7228.79
7220.48
7212.38
7204.45
7196.7
7189.19
7181.79
7174.68
7167.65
7161.02
7154.4
7148.22
7142.05
7136.19
7130.73
7125.4
7120.53
7115.84
7111.48
7107.49
7103.93
7100.64
7097.8
7095.28
7093.17
7091.47
7090.2
7089.32
7088.9
7088.88
7089.31
7090.16
7091.49
7093.26
7095.49
7098.2
7101.36
7104.99
7109.07
7113.62
7118.62
7124.08
7129.97
7136.3
7143.05
7150.23
7157.83
7165.83
7174.21
7182.97
7192.1
7201.58
7211.42
7221.58
7232.06
7242.84
7253.91
7265.27
7276.88
7288.73
7300.81
7313.12
7325.62
7338.29
7351.12
7364.1
7377.22
7390.44
7403.76
7417.13
7430.57
7444.05
7457.56
7471.07
7484.56
7498.02
7511.43
7524.78
7538.06
7551.23
7564.3
7577.25
7590.07
7602.73
7615.22
7627.54
7639.67
7651.6
7663.33
7674.83
7686.11
7697.15
7707.94
7718.48
7728.77
7738.79
7748.55
7758.04
7767.25
7776.17
7784.83
7793.21
7801.32
7809.16
7816.73
7824.04
7831.08
7837.88
7844.44
7850.76
7856.85
7862.73
7868.4
7873.87
7879.16
7884.27
7889.2
7893.99
7898.63
7903.14
7907.52
7911.77
7915.92
7919.96
7923.91
7927.76
7931.51
7935.14
7938.65
7942.03
7945.28
7948.4
7951.38
7954.21
7956.9
7959.43
7961.82
7964.05
7966.13
7968.05
7969.82
7971.44
7972.91
7974.22
7975.38
7976.4
7977.27
7977.99
7978.57
7979.01
7979.32
7979.49
7979.53
7979.44
7979.24
7978.91
7978.47
7977.91
7977.25
7976.48
7975.62
7974.66
7973.6
7972.46
7971.24
7969.93
7968.56
7967.1
7965.58
7964
7962.36
7960.66
7958.9
7957.1
7955.25
7953.36
7951.43
7949.46
7947.45
7945.42
7943.36
7941.27
7939.15
7937.02
7934.86
7932.69
7930.5
7928.3
7926.08
7923.86
7921.63
7919.39
7917.14
7914.89
7912.64
7910.39
7908.13
7905.88
7903.62
7901.37
7899.12
7896.88
7894.64
7892.4
7890.17
7887.95
7885.73
7883.52
7881.32
7879.13
7876.94
7874.77
7872.6
7870.45
7868.3
7866.17
7864.05
7861.94
7859.84
7857.76
7855.69
7853.63
7851.59
7849.56
7847.55
7845.55
7843.56
7841.6
7839.64
7837.71
7835.79
7833.89
7832.01
7830.15
7828.3
7826.48
7824.67
7822.88
7821.11
7819.37
7817.64
7815.93
7814.25
7812.58
7810.93
7809.31
7807.71
7806.13
7804.57
7803.03
7801.52
7800.03
7798.56
7797.11
7795.68
7794.28
7792.9
7791.54
7790.2
7788.89
7787.59
7786.32
7785.07
7783.84
7782.63
7781.44
7780.28
7779.13
7778.01
7776.9
7775.82
7774.75
7773.71
7772.68
7771.68
7770.69
7769.72
7768.77
7767.84
7766.92
7766.03
7765.15
7764.29
7763.44
7762.61
7761.8
7761
7760.22
7759.46
7758.71
7757.97
7757.25
7756.54
7755.85
7755.17
7754.5
7753.85
7753.21
7752.58
7751.96
7751.36
7750.77
7750.19
7749.62
7749.06
7748.52
7747.98
7747.45
7746.94
7746.43
7745.94
7745.45
7744.97
7744.5
7744.04
7743.59
7743.15
7742.71
7742.29
7741.87
7741.46
7741.06
7740.67
7740.28
7739.9
7739.52
7739.16
7738.81
7738.46
7738.11
7737.77
7737.44
7737.11
7736.78
7736.46
7736.15
7735.84
7735.53
7735.23
7734.94
7734.65
7734.37
7734.1
7733.83
7733.56
7733.3
7733.05
7732.8
7732.56
7732.33
7732.09
7731.87
7731.65
7731.43
7731.22
7731.01
7730.81
7730.62
7730.42
7730.25
7730.07
7729.9
7729.74
7729.6
7729.38
7729.28
7729.19
7729.08
7728.96
7728.84
7728.72
7728.6
7728.48
7728.36
7728.24
7728.11
7727.99
7727.87
7727.76
7727.64
7727.52
7727.41
7727.29
7727.18
7727.07
7726.97
7726.86
7726.75
7726.65
7726.55
7726.45
7726.35
7726.26
7726.16
7726.07
7725.98
7725.89
7725.81
7725.72
7725.64
7725.56
7725.48
7725.41
7725.33
7725.26
7725.19
7725.12
7725.05
7724.99
7724.93
7724.87
7724.81
7724.75
7724.7
7724.64
7724.59
7724.54
7724.5
7724.45
7724.41
7724.37
7724.33
7724.29
7724.25
7724.22
7724.19
7724.16
7724.13
7724.1
7724.08
7724.06
7724.04
7724.02
7724
7723.98
7723.97
7723.96
7723.95
7723.94
7723.94
7723.93
7723.93
7723.93
7723.94
7723.92
7723.96
8007.01
7992.47
7979.42
7968.28
7967.17
7967.84
7964.87
7959.7
7953.15
7946
7938.55
7930.89
7923.09
7915.16
7907.12
7898.98
7890.72
7882.35
7873.87
7865.28
7856.6
7847.82
7838.95
7829.97
7820.89
7811.72
7802.46
7793.1
7783.66
7774.12
7764.5
7754.8
7745.02
7735.16
7725.23
7715.23
7705.16
7695.01
7684.8
7674.53
7664.2
7653.83
7643.41
7632.94
7622.43
7611.88
7601.29
7590.69
7580.06
7569.42
7558.76
7548.1
7537.45
7526.82
7516.2
7505.59
7495
7484.44
7473.94
7463.48
7453.07
7442.71
7432.41
7422.19
7412.06
7402.03
7392.1
7382.26
7372.51
7362.8
7353.12
7343.52
7334.01
7324.67
7315.58
7306.83
7298.42
7290.26
7282.15
7274.23
7268.2
7258.87
7242.7
7234.22
7223.45
7214.19
7204.24
7194.8
7184.82
7174.25
7164.69
7154.69
7145.13
7135.39
7125.76
7115.99
7106.25
7096.15
7086.12
7076.23
7066.89
7057.96
7049.25
7040.73
7032.06
7023.88
7015.66
7007.91
7000.05
6992.51
6985.1
6977.94
6970.98
6964.2
6957.67
6951.34
6945.3
6939.38
6934
6928.44
6923.49
6919.01
6914.69
6910.83
6907.12
6903.78
6900.83
6898.42
6896.29
6894.67
6893.34
6892.47
6892
6892
6892.42
6893.3
6894.62
6896.4
6898.62
6901.33
6904.49
6908.12
6912.21
6916.76
6921.78
6927.23
6933.13
6939.47
6946.24
6953.44
6961.05
6969.05
6977.44
6986.21
6995.36
7004.87
7014.71
7024.89
7035.38
7046.18
7057.27
7068.64
7080.27
7092.15
7104.25
7116.57
7129.09
7141.79
7154.64
7167.65
7180.78
7194.03
7207.36
7220.77
7234.23
7247.73
7261.26
7274.78
7288.29
7301.78
7315.21
7328.58
7341.87
7355.06
7368.14
7381.11
7393.94
7406.62
7419.12
7431.45
7443.59
7455.53
7467.26
7478.77
7490.06
7501.11
7511.91
7522.45
7532.74
7542.76
7552.52
7562.01
7571.22
7580.15
7588.81
7597.19
7605.3
7613.14
7620.71
7628.02
7635.07
7641.87
7648.42
7654.75
7660.84
7666.72
7672.39
7677.87
7683.16
7688.27
7693.21
7698
7702.64
7707.15
7711.53
7715.79
7719.94
7723.99
7727.94
7731.8
7735.55
7739.19
7742.7
7746.09
7749.35
7752.47
7755.45
7758.29
7760.97
7763.51
7765.89
7768.13
7770.21
7772.13
7773.91
7775.52
7776.99
7778.3
7779.46
7780.47
7781.34
7782.06
7782.63
7783.07
7783.37
7783.54
7783.58
7783.49
7783.27
7782.94
7782.49
7781.93
7781.26
7780.49
7779.62
7778.65
7777.59
7776.44
7775.21
7773.9
7772.52
7771.06
7769.53
7767.94
7766.29
7764.59
7762.83
7761.02
7759.16
7757.27
7755.33
7753.35
7751.34
7749.3
7747.24
7745.14
7743.02
7740.88
7738.72
7736.55
7734.36
7732.15
7729.93
7727.71
7725.47
7723.23
7720.98
7718.73
7716.48
7714.22
7711.96
7709.71
7707.45
7705.2
7702.95
7700.7
7698.46
7696.22
7693.99
7691.76
7689.55
7687.34
7685.13
7682.94
7680.75
7678.58
7676.41
7674.25
7672.11
7669.97
7667.85
7665.74
7663.64
7661.56
7659.49
7657.43
7655.38
7653.35
7651.34
7649.34
7647.35
7645.39
7643.43
7641.5
7639.58
7637.68
7635.8
7633.93
7632.09
7630.26
7628.45
7626.66
7624.9
7623.15
7621.42
7619.71
7618.02
7616.36
7614.71
7613.09
7611.48
7609.9
7608.34
7606.81
7605.29
7603.8
7602.33
7600.88
7599.45
7598.05
7596.67
7595.31
7593.97
7592.66
7591.36
7590.09
7588.84
7587.61
7586.4
7585.21
7584.05
7582.9
7581.78
7580.67
7579.59
7578.52
7577.48
7576.45
7575.45
7574.46
7573.49
7572.54
7571.61
7570.7
7569.8
7568.92
7568.06
7567.21
7566.39
7565.57
7564.78
7564
7563.23
7562.48
7561.74
7561.02
7560.32
7559.62
7558.94
7558.28
7557.63
7556.99
7556.36
7555.74
7555.14
7554.55
7553.97
7553.4
7552.84
7552.3
7551.76
7551.23
7550.72
7550.21
7549.72
7549.23
7548.75
7548.29
7547.82
7547.37
7546.93
7546.5
7546.07
7545.66
7545.24
7544.84
7544.44
7544.06
7543.69
7543.32
7542.96
7542.6
7542.25
7541.9
7541.56
7541.22
7540.9
7540.57
7540.25
7539.93
7539.62
7539.32
7539.02
7538.73
7538.44
7538.16
7537.88
7537.61
7537.35
7537.09
7536.84
7536.59
7536.35
7536.11
7535.88
7535.66
7535.44
7535.21
7535.01
7534.79
7534.6
7534.41
7534.23
7534.03
7533.87
7533.61
7533.49
7533.38
7533.26
7533.14
7533.01
7532.89
7532.77
7532.65
7532.53
7532.4
7532.28
7532.16
7532.03
7531.91
7531.79
7531.67
7531.55
7531.43
7531.32
7531.2
7531.09
7530.98
7530.87
7530.76
7530.65
7530.55
7530.45
7530.35
7530.25
7530.15
7530.05
7529.96
7529.87
7529.78
7529.69
7529.6
7529.52
7529.44
7529.36
7529.28
7529.2
7529.13
7529.06
7528.98
7528.92
7528.85
7528.78
7528.72
7528.66
7528.6
7528.55
7528.49
7528.44
7528.39
7528.34
7528.29
7528.25
7528.2
7528.16
7528.12
7528.08
7528.05
7528.01
7527.98
7527.95
7527.92
7527.9
7527.87
7527.85
7527.83
7527.81
7527.79
7527.78
7527.77
7527.76
7527.75
7527.74
7527.73
7527.73
7527.73
7527.73
7527.74
7527.72
7527.75
7810.59
7796.98
7786.27
7775.62
7772.56
7770.54
7766.93
7761.66
7755.61
7748.93
7741.82
7734.42
7726.81
7719.01
7711.05
7702.97
7694.75
7686.41
7677.95
7669.39
7660.72
7651.95
7643.07
7634.09
7625.01
7615.83
7606.56
7597.21
7587.75
7578.2
7568.57
7558.86
7549.07
7539.21
7529.26
7519.25
7509.16
7499
7488.78
7478.49
7468.16
7457.75
7447.31
7436.83
7426.3
7415.74
7405.14
7394.52
7383.87
7373.21
7362.53
7351.86
7341.19
7330.52
7319.86
7309.21
7298.59
7288.02
7277.49
7266.99
7256.54
7246.15
7235.82
7225.56
7215.37
7205.27
7195.25
7185.31
7175.45
7165.65
7155.94
7146.31
7136.77
7127.36
7118.11
7109.13
7100.48
7092.05
7083.07
7073.95
7065.29
7056.95
7049.22
7043.06
7032.53
7015.8
7007.09
6995.98
6987.41
6977.46
6968.35
6958.34
6947.99
6938.45
6928.55
6918.95
6909.11
6899.4
6889.62
6880.46
6870.86
6861.49
6852.05
6843.22
6834.72
6826.51
6818.69
6810.59
6802.96
6795.41
6787.98
6780.82
6773.69
6767.07
6760.4
6754.24
6748.02
6742.3
6736.68
6731.56
6726.41
6721.82
6717.02
6712.93
6709.66
6706.34
6703.65
6701.01
6698.8
6697
6695.82
6694.9
6694.56
6694.45
6694.87
6695.65
6696.96
6698.75
6700.98
6703.73
6706.89
6710.53
6714.63
6719.2
6724.23
6729.71
6735.63
6742
6748.79
6756.01
6763.64
6771.67
6780.08
6788.89
6798.07
6807.61
6817.49
6827.69
6838.22
6849.05
6860.18
6871.58
6883.25
6895.17
6907.32
6919.68
6932.24
6944.98
6957.88
6970.93
6984.11
6997.4
7010.78
7024.23
7037.73
7051.28
7064.84
7078.41
7091.96
7105.48
7118.95
7132.36
7145.68
7158.9
7172.02
7185.02
7197.87
7210.57
7223.11
7235.46
7247.62
7259.57
7271.32
7282.85
7294.15
7305.21
7316.02
7326.58
7336.87
7346.9
7356.66
7366.15
7375.37
7384.31
7392.96
7401.35
7409.46
7417.3
7424.87
7432.18
7439.24
7446.04
7452.6
7458.93
7465.03
7470.91
7476.59
7482.07
7487.37
7492.49
7497.44
7502.24
7506.89
7511.4
7515.79
7520.06
7524.23
7528.28
7532.24
7536.1
7539.85
7543.5
7547.02
7550.42
7553.68
7556.81
7559.79
7562.63
7565.32
7567.86
7570.25
7572.49
7574.57
7576.5
7578.27
7579.88
7581.34
7582.65
7583.81
7584.81
7585.67
7586.39
7586.95
7587.38
7587.68
7587.84
7587.86
7587.76
7587.54
7587.19
7586.73
7586.16
7585.48
7584.7
7583.81
7582.83
7581.76
7580.6
7579.35
7578.03
7576.63
7575.16
7573.62
7572.02
7570.36
7568.64
7566.87
7565.05
7563.18
7561.28
7559.33
7557.34
7555.32
7553.27
7551.19
7549.09
7546.96
7544.81
7542.65
7540.46
7538.27
7536.05
7533.83
7531.6
7529.36
7527.11
7524.86
7522.6
7520.34
7518.08
7515.82
7513.56
7511.3
7509.04
7506.79
7504.54
7502.29
7500.05
7497.82
7495.59
7493.37
7491.16
7488.95
7486.75
7484.57
7482.39
7480.22
7478.06
7475.91
7473.78
7471.65
7469.54
7467.44
7465.35
7463.28
7461.22
7459.17
7457.14
7455.12
7453.12
7451.14
7449.17
7447.21
7445.27
7443.35
7441.45
7439.57
7437.7
7435.85
7434.02
7432.21
7430.42
7428.65
7426.9
7425.17
7423.46
7421.78
7420.11
7418.46
7416.84
7415.23
7413.65
7412.09
7410.55
7409.04
7407.54
7406.07
7404.62
7403.2
7401.79
7400.41
7399.05
7397.71
7396.39
7395.1
7393.83
7392.58
7391.35
7390.14
7388.95
7387.79
7386.64
7385.52
7384.41
7383.33
7382.26
7381.22
7380.19
7379.19
7378.2
7377.23
7376.28
7375.35
7374.44
7373.54
7372.66
7371.8
7370.96
7370.13
7369.32
7368.52
7367.74
7366.98
7366.23
7365.49
7364.77
7364.07
7363.37
7362.7
7362.03
7361.38
7360.74
7360.11
7359.5
7358.89
7358.31
7357.73
7357.16
7356.6
7356.06
7355.52
7355
7354.48
7353.97
7353.48
7352.99
7352.52
7352.05
7351.59
7351.14
7350.7
7350.26
7349.84
7349.41
7349.01
7348.62
7348.23
7347.85
7347.47
7347.1
7346.74
7346.38
7346.03
7345.68
7345.34
7345
7344.67
7344.34
7344.02
7343.71
7343.4
7343.09
7342.79
7342.5
7342.22
7341.93
7341.66
7341.39
7341.13
7340.86
7340.62
7340.37
7340.13
7339.89
7339.65
7339.43
7339.2
7339
7338.78
7338.59
7338.37
7338.19
7337.91
7337.78
7337.65
7337.52
7337.38
7337.24
7337.1
7336.97
7336.84
7336.71
7336.58
7336.45
7336.33
7336.2
7336.08
7335.95
7335.83
7335.71
7335.58
7335.46
7335.34
7335.23
7335.11
7335
7334.88
7334.77
7334.66
7334.55
7334.45
7334.34
7334.24
7334.14
7334.04
7333.94
7333.84
7333.75
7333.66
7333.57
7333.48
7333.39
7333.31
7333.23
7333.15
7333.07
7332.99
7332.92
7332.85
7332.77
7332.71
7332.64
7332.57
7332.51
7332.45
7332.39
7332.34
7332.28
7332.23
7332.18
7332.13
7332.08
7332.04
7331.99
7331.95
7331.91
7331.87
7331.84
7331.8
7331.77
7331.74
7331.71
7331.69
7331.66
7331.64
7331.62
7331.6
7331.59
7331.57
7331.56
7331.55
7331.54
7331.53
7331.52
7331.52
7331.52
7331.52
7331.53
7331.51
7331.54
7618.18
7606.25
7597.62
7591.67
7585.6
7579.46
7573.26
7566.82
7560.15
7553.17
7545.97
7538.56
7530.96
7523.19
7515.26
7507.2
7499
7490.68
7482.24
7473.69
7465.01
7456.23
7447.34
7438.36
7429.29
7420.1
7410.81
7401.43
7391.96
7382.4
7372.76
7363.03
7353.22
7343.33
7333.37
7323.34
7313.23
7303.04
7292.81
7282.5
7272.13
7261.7
7251.23
7240.72
7230.17
7219.58
7208.96
7198.31
7187.63
7176.94
7166.24
7155.53
7144.82
7134.12
7123.42
7112.73
7102.08
7091.47
7080.89
7070.34
7059.85
7049.4
7039.02
7028.69
7018.44
7008.26
6998.16
6988.14
6978.19
6968.32
6958.53
6948.8
6939.15
6929.63
6920.26
6911.07
6902.05
6893.11
6884.14
6875.15
6866.01
6856.42
6846.59
6837.24
6828.43
6819.88
6812.16
6805.93
6795.41
6779.08
6770.87
6760.79
6751.27
6741.62
6731.72
6721.15
6711.79
6701.8
6692.31
6682.48
6673.01
6663.88
6655.37
6646.74
6638.04
6629.36
6620.84
6612.63
6604.82
6597.52
6590.26
6582.99
6576.11
6569.17
6562.64
6556.17
6550.24
6544.29
6538.92
6533.48
6528.67
6523.92
6519.75
6515.4
6511.76
6507.71
6504.65
6502.71
6500.52
6499.09
6497.63
6496.62
6496.06
6496.13
6496.52
6497.44
6498.76
6500.52
6502.7
6505.41
6508.61
6512.26
6516.4
6520.97
6526.01
6531.51
6537.47
6543.87
6550.7
6557.95
6565.62
6573.68
6582.15
6591
6600.22
6609.8
6619.72
6629.98
6640.56
6651.45
6662.63
6674.09
6685.82
6697.8
6710.01
6722.44
6735.06
6747.86
6760.84
6773.95
6787.19
6800.54
6813.99
6827.51
6841.08
6854.69
6868.31
6881.94
6895.56
6909.13
6922.65
6936.11
6949.49
6962.77
6975.94
6988.98
7001.87
7014.6
7027.17
7039.56
7051.75
7063.75
7075.52
7087.07
7098.39
7109.46
7120.29
7130.87
7141.18
7151.21
7160.98
7170.47
7179.7
7188.65
7197.31
7205.69
7213.81
7221.65
7229.24
7236.56
7243.62
7250.43
7257
7263.33
7269.45
7275.34
7281.03
7286.52
7291.83
7296.96
7301.93
7306.74
7311.4
7315.93
7320.33
7324.61
7328.79
7332.86
7336.83
7340.69
7344.45
7348.09
7351.62
7355.02
7358.29
7361.43
7364.42
7367.26
7369.96
7372.5
7374.9
7377.13
7379.22
7381.14
7382.91
7384.52
7385.97
7387.28
7388.43
7389.43
7390.28
7390.98
7391.54
7391.95
7392.23
7392.38
7392.39
7392.27
7392.03
7391.67
7391.19
7390.6
7389.91
7389.1
7388.2
7387.2
7386.11
7384.93
7383.67
7382.32
7380.9
7379.41
7377.86
7376.24
7374.56
7372.82
7371.03
7369.2
7367.31
7365.39
7363.42
7361.42
7359.39
7357.32
7355.23
7353.11
7350.97
7348.81
7346.63
7344.44
7342.23
7340
7337.77
7335.53
7333.28
7331.03
7328.77
7326.5
7324.24
7321.97
7319.7
7317.43
7315.17
7312.91
7310.65
7308.39
7306.14
7303.9
7301.66
7299.43
7297.2
7294.99
7292.78
7290.58
7288.39
7286.2
7284.03
7281.87
7279.72
7277.58
7275.45
7273.34
7271.24
7269.15
7267.07
7265.01
7262.96
7260.92
7258.9
7256.9
7254.91
7252.93
7250.98
7249.04
7247.11
7245.21
7243.32
7241.45
7239.6
7237.77
7235.96
7234.17
7232.39
7230.64
7228.91
7227.2
7225.5
7223.83
7222.19
7220.56
7218.95
7217.37
7215.81
7214.27
7212.75
7211.26
7209.78
7208.33
7206.91
7205.5
7204.12
7202.76
7201.42
7200.1
7198.81
7197.53
7196.28
7195.05
7193.85
7192.66
7191.49
7190.35
7189.22
7188.12
7187.03
7185.97
7184.93
7183.9
7182.9
7181.91
7180.94
7180
7179.06
7178.15
7177.26
7176.38
7175.52
7174.68
7173.85
7173.04
7172.24
7171.46
7170.7
7169.95
7169.22
7168.5
7167.79
7167.1
7166.42
7165.76
7165.11
7164.47
7163.84
7163.23
7162.63
7162.04
7161.46
7160.9
7160.34
7159.8
7159.26
7158.74
7158.22
7157.72
7157.22
7156.74
7156.26
7155.8
7155.33
7154.89
7154.43
7154.01
7153.6
7153.19
7152.79
7152.39
7152
7151.62
7151.24
7150.87
7150.5
7150.14
7149.79
7149.44
7149.1
7148.76
7148.43
7148.1
7147.78
7147.47
7147.16
7146.85
7146.56
7146.26
7145.97
7145.7
7145.41
7145.15
7144.88
7144.63
7144.36
7144.13
7143.87
7143.65
7143.42
7143.2
7143
7142.75
7142.56
7142.25
7142.1
7141.97
7141.82
7141.67
7141.51
7141.36
7141.21
7141.07
7140.93
7140.79
7140.66
7140.52
7140.39
7140.26
7140.13
7140
7139.88
7139.75
7139.62
7139.5
7139.38
7139.26
7139.14
7139.02
7138.9
7138.79
7138.67
7138.56
7138.45
7138.34
7138.23
7138.13
7138.02
7137.92
7137.82
7137.73
7137.63
7137.54
7137.44
7137.35
7137.27
7137.18
7137.1
7137.01
7136.93
7136.85
7136.78
7136.7
7136.63
7136.56
7136.49
7136.43
7136.36
7136.3
7136.24
7136.18
7136.12
7136.07
7136.01
7135.96
7135.91
7135.87
7135.82
7135.78
7135.74
7135.7
7135.66
7135.62
7135.59
7135.56
7135.53
7135.5
7135.47
7135.45
7135.43
7135.41
7135.39
7135.37
7135.36
7135.34
7135.33
7135.32
7135.31
7135.31
7135.31
7135.3
7135.3
7135.31
7135.29
7135.33
7423.62
7413.37
7406.47
7400.53
7393.14
7385.94
7378.95
7372.07
7365.03
7357.85
7350.54
7343.05
7335.42
7327.63
7319.7
7311.64
7303.45
7295.13
7286.69
7278.13
7269.45
7260.65
7251.76
7242.77
7233.68
7224.48
7215.17
7205.76
7196.27
7186.69
7177.03
7167.28
7157.44
7147.53
7137.54
7127.48
7117.34
7107.14
7096.87
7086.54
7076.11
7065.65
7055.15
7044.6
7034
7023.38
7012.73
7002.05
6991.33
6980.59
6969.85
6959.1
6948.34
6937.59
6926.85
6916.13
6905.42
6894.75
6884.11
6873.49
6862.93
6852.42
6841.97
6831.57
6821.24
6810.97
6800.77
6790.64
6780.58
6770.61
6760.73
6750.92
6741.16
6731.51
6721.97
6712.54
6703.22
6693.99
6684.81
6675.59
6666.31
6656.99
6647.68
6638.33
6628.56
6618.77
6609.43
6600.58
6592.35
6584.95
6578.53
6567.59
6551.19
6543.78
6533.87
6524.37
6514.73
6505
6494.57
6485.7
6476.01
6467.06
6457.65
6448.82
6440.11
6431.97
6424.11
6415.67
6407.96
6399.45
6391.7
6384.41
6377.37
6371.09
6364.27
6358.22
6351.84
6346.08
6340.36
6335.33
6330.21
6325.75
6321.21
6317.35
6313.63
6310.47
6307.02
6304.43
6301.17
6299.2
6298.66
6297.64
6297.61
6297.32
6297.63
6298.19
6299.39
6301.3
6303.52
6306.39
6309.53
6313.2
6317.33
6321.97
6327.04
6332.62
6338.61
6345.06
6351.93
6359.24
6366.95
6375.08
6383.61
6392.52
6401.81
6411.44
6421.43
6431.75
6442.41
6453.37
6464.63
6476.16
6487.97
6500.02
6512.32
6524.83
6537.54
6550.43
6563.5
6576.7
6590.03
6603.47
6617
6630.61
6644.27
6657.96
6671.67
6685.38
6699.08
6712.73
6726.33
6739.86
6753.31
6766.66
6779.89
6792.98
6805.93
6818.72
6831.33
6843.77
6856.01
6868.05
6879.86
6891.44
6902.78
6913.88
6924.73
6935.33
6945.66
6955.72
6965.49
6975
6984.23
6993.19
7001.87
7010.27
7018.39
7026.24
7033.84
7041.17
7048.24
7055.07
7061.65
7068
7074.13
7080.04
7085.75
7091.26
7096.58
7101.73
7106.72
7111.55
7116.23
7120.77
7125.19
7129.49
7133.68
7137.76
7141.74
7145.61
7149.37
7153.01
7156.54
7159.95
7163.22
7166.36
7169.35
7172.2
7174.9
7177.45
7179.84
7182.08
7184.16
7186.08
7187.84
7189.45
7190.89
7192.19
7193.33
7194.32
7195.15
7195.84
7196.38
7196.78
7197.04
7197.17
7197.16
7197.03
7196.76
7196.38
7195.88
7195.27
7194.54
7193.71
7192.78
7191.76
7190.64
7189.44
7188.15
7186.78
7185.33
7183.82
7182.24
7180.59
7178.89
7177.13
7175.32
7173.45
7171.55
7169.6
7167.61
7165.59
7163.54
7161.45
7159.34
7157.2
7155.05
7152.87
7150.67
7148.46
7146.24
7144
7141.76
7139.51
7137.24
7134.98
7132.71
7130.44
7128.16
7125.88
7123.61
7121.33
7119.06
7116.79
7114.53
7112.27
7110.01
7107.76
7105.51
7103.28
7101.05
7098.82
7096.61
7094.41
7092.21
7090.03
7087.85
7085.68
7083.53
7081.39
7079.26
7077.14
7075.03
7072.94
7070.85
7068.79
7066.73
7064.7
7062.67
7060.66
7058.67
7056.69
7054.73
7052.79
7050.86
7048.95
7047.06
7045.19
7043.33
7041.5
7039.68
7037.89
7036.11
7034.35
7032.62
7030.9
7029.21
7027.54
7025.89
7024.26
7022.65
7021.06
7019.5
7017.96
7016.44
7014.94
7013.47
7012.02
7010.59
7009.18
7007.8
7006.44
7005.1
7003.78
7002.48
7001.21
6999.96
6998.73
6997.52
6996.33
6995.17
6994.02
6992.9
6991.79
6990.71
6989.65
6988.6
6987.58
6986.58
6985.59
6984.63
6983.68
6982.75
6981.84
6980.94
6980.07
6979.21
6978.37
6977.54
6976.73
6975.94
6975.16
6974.4
6973.65
6972.92
6972.2
6971.49
6970.8
6970.13
6969.46
6968.81
6968.18
6967.55
6966.94
6966.34
6965.75
6965.17
6964.61
6964.05
6963.51
6962.98
6962.46
6961.94
6961.44
6960.95
6960.46
6959.99
6959.51
6959.06
6958.63
6958.2
6957.78
6957.36
6956.95
6956.55
6956.15
6955.76
6955.37
6955
6954.62
6954.26
6953.9
6953.54
6953.19
6952.85
6952.51
6952.18
6951.85
6951.53
6951.22
6950.91
6950.6
6950.31
6950.01
6949.73
6949.44
6949.17
6948.89
6948.64
6948.35
6948.12
6947.88
6947.65
6947.42
6947.17
6946.96
6946.63
6946.47
6946.33
6946.17
6946
6945.83
6945.66
6945.51
6945.35
6945.19
6945.04
6944.9
6944.75
6944.61
6944.47
6944.33
6944.2
6944.06
6943.93
6943.8
6943.67
6943.54
6943.42
6943.29
6943.17
6943.04
6942.92
6942.8
6942.69
6942.57
6942.46
6942.34
6942.23
6942.12
6942.02
6941.91
6941.81
6941.7
6941.61
6941.51
6941.41
6941.32
6941.22
6941.13
6941.05
6940.96
6940.88
6940.79
6940.71
6940.63
6940.56
6940.48
6940.41
6940.34
6940.27
6940.21
6940.14
6940.08
6940.02
6939.96
6939.9
6939.85
6939.79
6939.74
6939.69
6939.65
6939.6
6939.56
6939.52
6939.48
6939.44
6939.41
6939.37
6939.34
6939.31
6939.28
6939.26
6939.23
6939.21
6939.19
6939.17
6939.15
6939.14
6939.12
6939.11
6939.1
6939.1
6939.09
6939.09
6939.08
6939.08
6939.09
6939.08
6939.11
7228.98
7218.96
7212.38
7205.98
7198.83
7191.67
7184.49
7177.36
7170.16
7162.86
7155.43
7147.87
7140.19
7132.36
7124.41
7116.33
7108.12
7099.78
7091.33
7082.75
7074.06
7065.25
7056.34
7047.33
7038.21
7028.99
7019.66
7010.23
7000.71
6991.11
6981.41
6971.63
6961.76
6951.82
6941.8
6931.7
6921.52
6911.28
6900.97
6890.61
6880.14
6869.63
6859.07
6848.47
6837.84
6827.18
6816.48
6805.75
6794.99
6784.2
6773.4
6762.59
6751.77
6740.96
6730.16
6719.37
6708.61
6697.87
6687.15
6676.47
6665.84
6655.25
6644.71
6634.22
6623.79
6613.42
6603.11
6592.87
6582.7
6572.62
6562.6
6552.63
6542.72
6532.96
6523.25
6513.62
6504.09
6494.65
6485.25
6475.84
6466.45
6457.1
6447.76
6438.36
6428.93
6419.59
6410.33
6401.02
6391.49
6382.02
6373.25
6365
6357.75
6350.83
6339.39
6322.99
6316.2
6306.67
6297.39
6287.84
6278.2
6268.5
6260.17
6251.02
6242.35
6233.55
6224.99
6216.77
6208.96
6201.73
6194.36
6186.78
6178.82
6171.58
6164.79
6158.43
6153.13
6147
6141.78
6136.16
6131.25
6126.42
6122.35
6118.17
6114.69
6111.15
6108.29
6105.69
6103.57
6101.12
6099.63
6097.28
6096.5
6097.47
6097.69
6098.7
6100.16
6101.8
6103.74
6106.38
6109.71
6113.4
6117.71
6122.31
6127.4
6132.97
6139.04
6145.55
6152.52
6159.87
6167.65
6175.85
6184.46
6193.44
6202.8
6212.51
6222.57
6232.97
6243.71
6254.77
6266.13
6277.76
6289.67
6301.82
6314.22
6326.84
6339.66
6352.67
6365.85
6379.17
6392.61
6406.16
6419.8
6433.52
6447.29
6461.1
6474.92
6488.73
6502.52
6516.27
6529.97
6543.59
6557.13
6570.56
6583.87
6597.04
6610.06
6622.92
6635.6
6648.09
6660.39
6672.48
6684.34
6695.97
6707.35
6718.48
6729.36
6739.98
6750.34
6760.43
6770.23
6779.76
6789
6797.98
6806.67
6815.09
6823.24
6831.11
6838.72
6846.06
6853.16
6860
6866.6
6872.98
6879.13
6885.06
6890.79
6896.32
6901.67
6906.84
6911.85
6916.7
6921.41
6925.97
6930.41
6934.73
6938.93
6943.02
6947
6950.87
6954.63
6958.28
6961.81
6965.21
6968.48
6971.62
6974.62
6977.46
6980.16
6982.71
6985.1
6987.34
6989.41
6991.32
6993.08
6994.68
6996.11
6997.4
6998.52
6999.5
7000.31
7000.98
7001.5
7001.88
7002.12
7002.22
7002.19
7002.03
7001.74
7001.32
7000.79
7000.15
6999.39
6998.53
6997.57
6996.51
6995.36
6994.12
6992.8
6991.4
6989.92
6988.37
6986.76
6985.08
6983.35
6981.56
6979.71
6977.82
6975.89
6973.91
6971.9
6969.85
6967.77
6965.66
6963.53
6961.37
6959.19
6956.99
6954.78
6952.55
6950.3
6948.05
6945.79
6943.52
6941.25
6938.97
6936.69
6934.4
6932.11
6929.83
6927.54
6925.26
6922.98
6920.7
6918.42
6916.15
6913.89
6911.63
6909.38
6907.14
6904.9
6902.67
6900.45
6898.24
6896.04
6893.85
6891.67
6889.5
6887.34
6885.19
6883.06
6880.93
6878.82
6876.72
6874.64
6872.56
6870.51
6868.46
6866.43
6864.42
6862.42
6860.44
6858.47
6856.53
6854.59
6852.68
6850.78
6848.91
6847.05
6845.21
6843.39
6841.59
6839.81
6838.05
6836.31
6834.59
6832.89
6831.21
6829.56
6827.93
6826.32
6824.73
6823.16
6821.62
6820.1
6818.6
6817.12
6815.67
6814.24
6812.83
6811.44
6810.08
6808.74
6807.42
6806.13
6804.85
6803.6
6802.37
6801.16
6799.98
6798.81
6797.67
6796.54
6795.44
6794.36
6793.29
6792.25
6791.23
6790.23
6789.24
6788.28
6787.33
6786.4
6785.49
6784.6
6783.73
6782.87
6782.03
6781.2
6780.4
6779.6
6778.83
6778.07
6777.32
6776.59
6775.87
6775.17
6774.48
6773.81
6773.15
6772.5
6771.86
6771.24
6770.63
6770.03
6769.44
6768.87
6768.3
6767.75
6767.22
6766.68
6766.17
6765.64
6765.15
6764.64
6764.16
6763.72
6763.26
6762.82
6762.38
6761.95
6761.52
6761.11
6760.69
6760.29
6759.89
6759.5
6759.11
6758.74
6758.36
6757.99
6757.63
6757.28
6756.93
6756.59
6756.25
6755.92
6755.59
6755.27
6754.96
6754.64
6754.34
6754.03
6753.75
6753.45
6753.18
6752.88
6752.63
6752.36
6752.13
6751.83
6751.62
6751.25
6751.08
6750.93
6750.76
6750.57
6750.38
6750.2
6750.01
6749.84
6749.67
6749.5
6749.34
6749.18
6749.02
6748.87
6748.72
6748.57
6748.42
6748.28
6748.14
6748
6747.86
6747.73
6747.6
6747.46
6747.33
6747.2
6747.08
6746.95
6746.83
6746.71
6746.59
6746.47
6746.35
6746.24
6746.12
6746.01
6745.9
6745.79
6745.69
6745.58
6745.48
6745.38
6745.28
6745.19
6745.09
6745
6744.91
6744.82
6744.74
6744.65
6744.57
6744.49
6744.41
6744.33
6744.26
6744.19
6744.12
6744.05
6743.98
6743.92
6743.85
6743.79
6743.74
6743.68
6743.62
6743.57
6743.52
6743.47
6743.42
6743.38
6743.34
6743.29
6743.25
6743.22
6743.18
6743.15
6743.12
6743.09
6743.06
6743.03
6743.01
6742.99
6742.96
6742.95
6742.93
6742.91
6742.9
6742.89
6742.88
6742.87
6742.87
6742.86
6742.86
6742.86
6742.87
6742.85
6742.89
7034.34
7024.15
7017.65
7011.34
7004.31
6997.22
6990.02
6982.79
6975.49
6968.09
6960.59
6952.98
6945.23
6937.36
6929.37
6921.25
6913.02
6904.66
6896.19
6887.59
6878.87
6870.03
6861.1
6852.06
6842.91
6833.66
6824.31
6814.86
6805.3
6795.66
6785.93
6776.11
6766.21
6756.23
6746.17
6736.02
6725.79
6715.51
6705.16
6694.73
6684.23
6673.67
6663.06
6652.4
6641.72
6631
6620.23
6609.44
6598.62
6587.76
6576.89
6566.02
6555.13
6544.25
6533.37
6522.5
6511.65
6500.82
6490.02
6479.27
6468.55
6457.86
6447.23
6436.65
6426.11
6415.62
6405.2
6394.84
6384.56
6374.36
6364.22
6354.15
6344.17
6334.21
6324.3
6314.46
6304.73
6295.07
6285.44
6275.86
6266.37
6256.94
6247.5
6238.06
6228.7
6219.37
6210.04
6200.71
6191.43
6182.22
6172.93
6163.44
6154.08
6145.45
6137.3
6130.36
6122.97
6111
6094.97
6089.2
6080.13
6071.38
6061.87
6052.54
6043.45
6035.79
6027.21
6019.03
6010.9
6002.92
5994.94
5987.52
5980.98
5974.1
5967.2
5959.66
5953.1
5946.77
5941.17
5937.02
5931.76
5927.55
5922.86
5918.92
5915.14
5912.21
5909.02
5906.64
5903.99
5902.27
5900.68
5899.52
5898.64
5897.82
5897.83
5896.85
5897.68
5900.8
5902.94
5906.24
5909.26
5912.76
5916.86
5921.74
5926.91
5932.7
5938.76
5945.31
5952.32
5959.8
5967.66
5975.98
5984.66
5993.74
6003.19
6013.01
6023.17
6033.69
6044.53
6055.69
6067.16
6078.91
6090.93
6103.21
6115.73
6128.48
6141.43
6154.58
6167.89
6181.35
6194.93
6208.62
6222.4
6236.25
6250.16
6264.09
6278.04
6291.98
6305.9
6319.77
6333.58
6347.32
6360.96
6374.49
6387.9
6401.16
6414.28
6427.22
6439.98
6452.54
6464.91
6477.06
6488.98
6500.67
6512.1
6523.28
6534.2
6544.86
6555.26
6565.37
6575.21
6584.77
6594.04
6603.04
6611.77
6620.21
6628.38
6636.28
6643.91
6651.28
6658.4
6665.28
6671.91
6678.31
6684.49
6690.45
6696.21
6701.77
6707.15
6712.35
6717.38
6722.25
6726.98
6731.57
6736.02
6740.35
6744.56
6748.66
6752.64
6756.52
6760.28
6763.92
6767.44
6770.84
6774.11
6777.24
6780.23
6783.07
6785.76
6788.3
6790.69
6792.92
6794.98
6796.89
6798.64
6800.22
6801.64
6802.91
6804.02
6804.97
6805.76
6806.41
6806.91
6807.26
6807.47
6807.54
6807.47
6807.28
6806.95
6806.5
6805.93
6805.25
6804.45
6803.55
6802.55
6801.45
6800.26
6798.99
6797.62
6796.18
6794.66
6793.08
6791.42
6789.71
6787.93
6786.1
6784.23
6782.3
6780.33
6778.32
6776.28
6774.2
6772.09
6769.95
6767.79
6765.6
6763.39
6761.17
6758.93
6756.68
6754.42
6752.15
6749.87
6747.58
6745.29
6742.99
6740.69
6738.39
6736.09
6733.79
6731.49
6729.2
6726.91
6724.62
6722.33
6720.06
6717.78
6715.52
6713.26
6711.01
6708.76
6706.53
6704.3
6702.09
6699.88
6697.68
6695.5
6693.32
6691.15
6689
6686.86
6684.73
6682.61
6680.5
6678.41
6676.33
6674.27
6672.22
6670.19
6668.17
6666.16
6664.18
6662.2
6660.25
6658.31
6656.39
6654.49
6652.61
6650.74
6648.9
6647.07
6645.27
6643.48
6641.71
6639.97
6638.25
6636.55
6634.87
6633.21
6631.57
6629.96
6628.36
6626.8
6625.25
6623.72
6622.22
6620.74
6619.29
6617.86
6616.45
6615.06
6613.7
6612.35
6611.03
6609.74
6608.46
6607.21
6605.98
6604.77
6603.59
6602.42
6601.28
6600.15
6599.05
6597.97
6596.91
6595.87
6594.85
6593.84
6592.86
6591.9
6590.95
6590.03
6589.12
6588.23
6587.35
6586.5
6585.66
6584.84
6584.03
6583.24
6582.47
6581.71
6580.96
6580.24
6579.52
6578.82
6578.13
6577.46
6576.8