/*--------------------------------*- C++ -*----------------------------------*\
| =========                 |                                                 |
| \\      /  F ield         | OpenFOAM: The Open Source CFD Toolbox           |
|  \\    /   O peration     | Version:  v2006                                 |
|   \\  /    A nd           | Website:  www.openfoam.com                      |
|    \\/     M anipulation  |                                                 |
\*---------------------------------------------------------------------------*/
FoamFile
{
    version     2.0;
    format      ascii;
    class       volScalarField;
    location    "4.3";
    object      p_rgh;
}
// * * * * * * * * * * * * * * * * * * * * * * * * * * * * * * * * * * * * * //

dimensions      [1 -1 -2 0 0 0 0];


internalField   nonuniform List<scalar> 
33000
(
8311.68
8300.58
8286.74
8275.74
8268.53
8265.96
8261.84
8255.13
8247.96
8240.56
8232.95
8225.21
8217.35
8209.38
8201.28
8193.08
8184.82
8176.47
8168
8159.41
8150.72
8141.93
8133.03
8124.01
8114.91
8105.79
8096.56
8087.2
8077.72
8068.16
8058.58
8048.92
8039.15
8029.29
8019.32
8009.29
7999.26
7989.18
7978.99
7968.72
7958.37
7947.99
7937.62
7927.18
7916.68
7906.14
7895.56
7884.95
7874.34
7863.72
7853.07
7842.41
7831.76
7821.09
7810.49
7799.93
7789.38
7778.84
7768.34
7757.9
7747.51
7737.17
7726.9
7716.7
7706.58
7696.6
7686.74
7676.98
7667.33
7657.73
7648.18
7638.67
7629.26
7619.96
7610.91
7602.63
7595.12
7589.68
7581.83
7566.88
7559.04
7548.6
7538.8
7529.2
7519.02
7508.35
7498.55
7488.38
7478.77
7468.78
7459.23
7449.47
7439.91
7430.48
7420.92
7411.38
7401.61
7391.58
7381.77
7371.94
7362.32
7352.95
7343.91
7335.38
7326.89
7318.58
7310.47
7302.54
7294.78
7287.25
7279.88
7272.78
7265.75
7259.12
7252.49
7246.3
7240.14
7234.28
7228.83
7223.5
7218.62
7213.93
7209.56
7205.57
7202.02
7198.73
7195.89
7193.36
7191.27
7189.57
7188.29
7187.41
7186.98
7186.97
7187.4
7188.26
7189.58
7191.35
7193.58
7196.28
7199.44
7203.08
7207.16
7211.71
7216.7
7222.17
7228.07
7234.39
7241.15
7248.31
7255.91
7263.93
7272.31
7281.07
7290.19
7299.67
7309.51
7319.68
7330.16
7340.93
7352.01
7363.37
7374.98
7386.83
7398.91
7411.22
7423.72
7436.39
7449.22
7462.2
7475.32
7488.54
7501.85
7515.23
7528.66
7542.14
7555.66
7569.17
7582.65
7596.11
7609.52
7622.87
7636.15
7649.33
7662.39
7675.33
7688.16
7700.83
7713.31
7725.63
7737.76
7749.69
7761.42
7772.93
7784.2
7795.24
7806.03
7816.57
7826.87
7836.89
7846.65
7856.14
7865.35
7874.27
7882.92
7891.3
7899.42
7907.26
7914.83
7922.13
7929.18
7935.98
7942.54
7948.86
7954.94
7960.82
7966.49
7971.97
7977.26
7982.36
7987.29
7992.08
7996.73
8001.24
8005.62
8009.87
8014.01
8018.05
8022.01
8025.86
8029.6
8033.24
8036.74
8040.12
8043.38
8046.5
8049.48
8052.31
8054.99
8057.53
8059.91
8062.15
8064.23
8066.15
8067.92
8069.54
8071.01
8072.32
8073.48
8074.5
8075.37
8076.09
8076.67
8077.11
8077.42
8077.58
8077.63
8077.54
8077.34
8077.01
8076.56
8076.01
8075.35
8074.58
8073.72
8072.75
8071.7
8070.56
8069.33
8068.03
8066.65
8065.2
8063.68
8062.1
8060.45
8058.76
8057
8055.2
8053.35
8051.46
8049.53
8047.55
8045.55
8043.52
8041.45
8039.37
8037.25
8035.11
8032.96
8030.78
8028.6
8026.4
8024.18
8021.96
8019.73
8017.49
8015.24
8012.99
8010.74
8008.49
8006.23
8003.98
8001.72
7999.47
7997.22
7994.98
7992.74
7990.5
7988.27
7986.05
7983.83
7981.62
7979.42
7977.23
7975.04
7972.87
7970.7
7968.55
7966.4
7964.27
7962.15
7960.04
7957.94
7955.86
7953.79
7951.73
7949.69
7947.66
7945.65
7943.65
7941.66
7939.7
7937.74
7935.81
7933.89
7931.99
7930.11
7928.25
7926.4
7924.58
7922.77
7920.98
7919.21
7917.47
7915.74
7914.03
7912.35
7910.68
7909.03
7907.41
7905.81
7904.23
7902.67
7901.13
7899.62
7898.13
7896.66
7895.21
7893.78
7892.38
7891
7889.64
7888.3
7886.99
7885.69
7884.42
7883.17
7881.94
7880.73
7879.54
7878.38
7877.23
7876.11
7875
7873.92
7872.85
7871.81
7870.78
7869.78
7868.79
7867.82
7866.87
7865.94
7865.02
7864.13
7863.25
7862.39
7861.54
7860.71
7859.9
7859.1
7858.32
7857.56
7856.81
7856.07
7855.35
7854.64
7853.95
7853.27
7852.6
7851.95
7851.31
7850.68
7850.06
7849.46
7848.87
7848.29
7847.72
7847.16
7846.62
7846.08
7845.55
7845.04
7844.53
7844.04
7843.55
7843.07
7842.6
7842.14
7841.69
7841.25
7840.81
7840.39
7839.97
7839.56
7839.16
7838.77
7838.38
7838
7837.62
7837.26
7836.91
7836.56
7836.21
7835.87
7835.54
7835.21
7834.88
7834.56
7834.25
7833.94
7833.63
7833.33
7833.04
7832.75
7832.47
7832.2
7831.93
7831.66
7831.4
7831.15
7830.9
7830.66
7830.43
7830.19
7829.97
7829.75
7829.53
7829.32
7829.11
7828.91
7828.72
7828.52
7828.35
7828.17
7828
7827.84
7827.7
7827.48
7827.38
7827.28
7827.17
7827.06
7826.94
7826.82
7826.7
7826.58
7826.45
7826.33
7826.21
7826.09
7825.97
7825.85
7825.74
7825.62
7825.51
7825.39
7825.28
7825.17
7825.06
7824.96
7824.85
7824.75
7824.65
7824.55
7824.45
7824.36
7824.26
7824.17
7824.08
7823.99
7823.91
7823.82
7823.74
7823.66
7823.58
7823.51
7823.43
7823.36
7823.29
7823.22
7823.15
7823.09
7823.03
7822.97
7822.91
7822.85
7822.8
7822.74
7822.69
7822.64
7822.6
7822.55
7822.51
7822.47
7822.43
7822.39
7822.35
7822.32
7822.29
7822.26
7822.23
7822.2
7822.18
7822.16
7822.13
7822.12
7822.1
7822.08
7822.07
7822.06
7822.05
7822.04
7822.04
7822.03
7822.03
7822.03
7822.04
7822.02
7822.06
8301.31
8286.78
8273.73
8262.58
8261.47
8262.13
8259.17
8254.01
8247.45
8240.3
8232.84
8225.19
8217.39
8209.46
8201.4
8193.15
8184.89
8176.59
8168.16
8159.58
8150.89
8142.04
8133.04
8124.06
8114.98
8105.96
8096.73
8087.29
8077.77
8068.24
8058.69
8049.08
8039.3
8029.32
8019.3
8009.3
7999.32
7989.3
7979.1
7968.79
7958.37
7947.97
7937.58
7927.22
7916.73
7906.17
7895.54
7884.87
7874.26
7863.68
7852.97
7842.2
7831.55
7820.92
7810.34
7799.85
7789.27
7778.66
7768.05
7757.63
7747.33
7737
7726.69
7716.39
7706.22
7696.19
7686.27
7676.53
7666.79
7657.09
7647.4
7637.8
7628.31
7618.94
7609.79
7600.99
7592.58
7584.44
7576.43
7568.52
7562.5
7553.16
7536.95
7528.42
7517.65
7508.39
7498.5
7489.09
7479.11
7468.54
7458.94
7448.93
7439.4
7429.68
7420.06
7410.29
7400.51
7390.39
7380.36
7370.47
7361.13
7352.21
7343.52
7335.01
7326.34
7318.16
7309.88
7302.11
7294.26
7286.72
7279.37
7272.24
7265.27
7258.49
7251.92
7245.59
7239.56
7233.67
7228.29
7222.67
7217.71
7213.24
7208.91
7205.08
7201.4
7198.06
7195.08
7192.66
7190.56
7188.95
7187.58
7186.71
7186.25
7186.28
7186.7
7187.58
7188.89
7190.64
7192.87
7195.57
7198.75
7202.4
7206.46
7211
7216.01
7221.51
7227.41
7233.73
7240.47
7247.66
7255.29
7263.33
7271.73
7280.49
7289.61
7299.12
7308.97
7319.18
7329.67
7340.44
7351.54
7362.94
7374.57
7386.42
7398.51
7410.86
7423.39
7436.08
7448.91
7461.9
7475.07
7488.33
7501.65
7515.03
7528.49
7541.99
7555.54
7569.08
7582.56
7596.04
7609.47
7622.85
7636.15
7649.33
7662.4
7675.36
7688.22
7700.91
7713.4
7725.72
7737.86
7749.8
7761.54
7773.04
7784.33
7795.39
7806.18
7816.72
7827
7837.03
7846.81
7856.3
7865.51
7874.42
7883.08
7891.46
7899.58
7907.43
7915
7922.29
7929.34
7936.14
7942.72
7949.04
7955.11
7960.99
7966.67
7972.15
7977.45
7982.56
7987.49
7992.27
7996.91
8001.43
8005.83
8010.09
8014.22
8018.27
8022.22
8026.07
8029.83
8033.48
8036.99
8040.37
8043.62
8046.74
8049.73
8052.57
8055.26
8057.79
8060.18
8062.42
8064.49
8066.41
8068.18
8069.8
8071.28
8072.59
8073.74
8074.75
8075.63
8076.35
8076.92
8077.36
8077.66
8077.82
8077.86
8077.77
8077.56
8077.23
8076.78
8076.22
8075.55
8074.78
8073.91
8072.94
8071.87
8070.73
8069.5
8068.19
8066.81
8065.35
8063.82
8062.23
8060.58
8058.88
8057.12
8055.31
8053.46
8051.56
8049.62
8047.65
8045.63
8043.59
8041.53
8039.44
8037.32
8035.18
8033.02
8030.84
8028.65
8026.44
8024.23
8022
8019.77
8017.52
8015.28
8013.03
8010.77
8008.52
8006.26
8004
8001.74
7999.49
7997.24
7995
7992.75
7990.52
7988.29
7986.06
7983.84
7981.63
7979.43
7977.24
7975.05
7972.87
7970.71
7968.55
7966.41
7964.27
7962.15
7960.04
7957.94
7955.86
7953.78
7951.73
7949.68
7947.65
7945.64
7943.64
7941.65
7939.68
7937.73
7935.8
7933.88
7931.98
7930.1
7928.23
7926.39
7924.56
7922.75
7920.96
7919.19
7917.45
7915.72
7914.01
7912.32
7910.65
7909.01
7907.39
7905.78
7904.2
7902.64
7901.11
7899.59
7898.1
7896.63
7895.18
7893.75
7892.35
7890.97
7889.61
7888.27
7886.96
7885.66
7884.39
7883.14
7881.91
7880.7
7879.51
7878.35
7877.2
7876.08
7874.97
7873.89
7872.82
7871.78
7870.75
7869.75
7868.76
7867.79
7866.84
7865.91
7865
7864.1
7863.22
7862.36
7861.51
7860.69
7859.87
7859.08
7858.3
7857.53
7856.78
7856.04
7855.32
7854.62
7853.92
7853.24
7852.58
7851.92
7851.29
7850.66
7850.04
7849.44
7848.85
7848.27
7847.7
7847.14
7846.6
7846.06
7845.53
7845.02
7844.51
7844.02
7843.53
7843.05
7842.58
7842.12
7841.67
7841.23
7840.8
7840.37
7839.96
7839.54
7839.14
7838.74
7838.36
7837.99
7837.62
7837.26
7836.9
7836.55
7836.2
7835.86
7835.52
7835.2
7834.87
7834.55
7834.23
7833.92
7833.62
7833.32
7833.03
7832.74
7832.46
7832.18
7831.91
7831.65
7831.39
7831.14
7830.89
7830.65
7830.41
7830.18
7829.95
7829.74
7829.51
7829.31
7829.09
7828.9
7828.71
7828.53
7828.33
7828.17
7827.92
7827.8
7827.7
7827.58
7827.46
7827.33
7827.21
7827.09
7826.97
7826.84
7826.72
7826.59
7826.47
7826.35
7826.22
7826.1
7825.98
7825.86
7825.74
7825.62
7825.51
7825.39
7825.28
7825.17
7825.06
7824.96
7824.85
7824.75
7824.65
7824.55
7824.45
7824.35
7824.26
7824.17
7824.08
7823.99
7823.9
7823.82
7823.74
7823.66
7823.58
7823.5
7823.43
7823.36
7823.29
7823.22
7823.15
7823.09
7823.02
7822.96
7822.9
7822.85
7822.79
7822.74
7822.69
7822.64
7822.59
7822.55
7822.5
7822.46
7822.42
7822.38
7822.35
7822.31
7822.28
7822.25
7822.22
7822.2
7822.17
7822.15
7822.13
7822.11
7822.1
7822.08
7822.07
7822.06
7822.05
7822.04
7822.03
7822.03
7822.03
7822.03
7822.04
7822.02
7822.05
8301.09
8287.49
8276.79
8266.14
8263.08
8261.06
8257.45
8252.18
8246.13
8239.43
8232.33
8224.93
8217.31
8209.51
8201.54
8193.35
8185.13
8176.85
8168.31
8159.71
8151.04
8142.35
8133.47
8124.36
8115.14
8105.96
8096.78
8087.62
8078.17
8068.51
8058.86
8049.22
8039.54
8029.66
8019.57
8009.36
7999.46
7989.48
7979.27
7968.94
7958.44
7947.99
7937.55
7927.18
7916.78
7906.21
7895.49
7884.82
7874.21
7863.66
7852.84
7842.02
7831.35
7820.69
7810.14
7799.65
7788.94
7778.2
7767.67
7757.29
7747.02
7736.64
7726.3
7715.92
7705.64
7695.54
7685.63
7675.79
7665.93
7656.12
7646.37
7636.74
7627.24
7617.82
7608.49
7599.4
7590.75
7582.32
7573.5
7564.45
7555.79
7547.45
7539.71
7533.5
7522.86
7506.13
7497.5
7486.46
7477.89
7467.93
7458.76
7448.75
7438.47
7428.94
7419.03
7409.43
7399.58
7389.84
7380.06
7370.94
7361.34
7351.97
7342.49
7333.6
7325.11
7316.9
7309.08
7301.04
7293.4
7285.81
7278.39
7271.29
7264.18
7257.55
7250.84
7244.65
7238.44
7232.77
7227.14
7221.98
7216.78
7212.19
7207.4
7203.38
7200.13
7196.79
7194.05
7191.41
7189.2
7187.4
7186.25
7185.36
7185.03
7184.88
7185.29
7186.08
7187.42
7189.21
7191.45
7194.18
7197.28
7200.92
7205.02
7209.62
7214.7
7220.18
7226.04
7232.37
7239.17
7246.42
7254.12
7262.14
7270.54
7279.28
7288.46
7298.08
7307.97
7318.17
7328.64
7339.47
7350.61
7362.07
7373.74
7385.61
7397.74
7410.12
7422.73
7435.45
7448.31
7461.35
7474.57
7487.88
7501.22
7514.66
7528.16
7541.71
7555.31
7568.87
7582.4
7595.95
7609.44
7622.84
7636.14
7649.32
7662.44
7675.45
7688.35
7701.06
7713.59
7725.95
7738.09
7750.01
7761.75
7773.28
7784.62
7795.7
7806.51
7817.04
7827.31
7837.34
7847.14
7856.64
7865.83
7874.75
7883.41
7891.83
7899.95
7907.78
7915.34
7922.64
7929.69
7936.52
7943.09
7949.39
7955.48
7961.37
7967.08
7972.57
7977.86
7982.98
7987.91
7992.69
7997.35
8001.89
8006.28
8010.56
8014.7
8018.74
8022.71
8026.59
8030.35
8033.99
8037.5
8040.88
8044.15
8047.29
8050.28
8053.12
8055.82
8058.35
8060.72
8062.95
8065.03
8066.96
8068.75
8070.37
8071.83
8073.14
8074.28
8075.28
8076.15
8076.87
8077.44
8077.86
8078.15
8078.31
8078.35
8078.25
8078.03
8077.67
8077.2
8076.65
8075.98
8075.19
8074.3
8073.31
8072.23
8071.07
8069.84
8068.53
8067.13
8065.66
8064.12
8062.51
8060.84
8059.12
8057.35
8055.54
8053.68
8051.77
8049.82
8047.83
8045.8
8043.76
8041.69
8039.59
8037.46
8035.31
8033.14
8030.95
8028.76
8026.55
8024.33
8022.09
8019.85
8017.6
8015.35
8013.09
8010.83
8008.57
8006.31
8004.05
8001.79
7999.53
7997.28
7995.03
7992.79
7990.55
7988.31
7986.09
7983.87
7981.65
7979.45
7977.25
7975.07
7972.89
7970.72
7968.56
7966.41
7964.28
7962.15
7960.04
7957.94
7955.85
7953.78
7951.72
7949.67
7947.64
7945.62
7943.62
7941.63
7939.66
7937.71
7935.77
7933.85
7931.95
7930.07
7928.2
7926.35
7924.52
7922.71
7920.92
7919.15
7917.4
7915.67
7913.96
7912.28
7910.61
7908.96
7907.34
7905.73
7904.15
7902.59
7901.05
7899.54
7898.04
7896.57
7895.12
7893.7
7892.29
7890.91
7889.55
7888.21
7886.89
7885.6
7884.33
7883.08
7881.85
7880.64
7879.45
7878.29
7877.14
7876.02
7874.91
7873.83
7872.76
7871.72
7870.69
7869.69
7868.7
7867.73
7866.78
7865.85
7864.94
7864.04
7863.16
7862.3
7861.46
7860.63
7859.82
7859.02
7858.24
7857.48
7856.73
7855.99
7855.27
7854.57
7853.87
7853.19
7852.53
7851.88
7851.24
7850.61
7850
7849.39
7848.8
7848.22
7847.66
7847.1
7846.56
7846.02
7845.49
7844.98
7844.47
7843.98
7843.49
7843.02
7842.55
7842.09
7841.64
7841.2
7840.76
7840.34
7839.91
7839.51
7839.12
7838.73
7838.35
7837.97
7837.6
7837.24
7836.88
7836.53
7836.18
7835.84
7835.5
7835.17
7834.84
7834.52
7834.21
7833.9
7833.59
7833.29
7833
7832.72
7832.43
7832.16
7831.89
7831.63
7831.36
7831.12
7830.87
7830.63
7830.39
7830.15
7829.93
7829.7
7829.5
7829.28
7829.09
7828.87
7828.69
7828.4
7828.27
7828.15
7828
7827.85
7827.71
7827.57
7827.45
7827.32
7827.19
7827.06
7826.94
7826.81
7826.69
7826.56
7826.44
7826.32
7826.19
7826.07
7825.95
7825.84
7825.72
7825.6
7825.49
7825.38
7825.27
7825.16
7825.05
7824.94
7824.84
7824.74
7824.63
7824.54
7824.44
7824.34
7824.25
7824.16
7824.07
7823.98
7823.89
7823.81
7823.72
7823.64
7823.57
7823.49
7823.42
7823.34
7823.27
7823.2
7823.14
7823.07
7823.01
7822.95
7822.89
7822.84
7822.78
7822.73
7822.68
7822.63
7822.58
7822.54
7822.49
7822.45
7822.41
7822.37
7822.34
7822.3
7822.27
7822.24
7822.21
7822.19
7822.16
7822.14
7822.12
7822.1
7822.08
7822.07
7822.06
7822.05
7822.04
7822.03
7822.02
7822.02
7822.02
7822.02
7822.03
7822.01
7822.04
8304.88
8292.96
8284.35
8278.41
8272.34
8266.2
8260
8253.55
8246.88
8239.9
8232.69
8225.28
8217.67
8209.89
8201.96
8193.88
8185.69
8177.36
8168.86
8160.14
8151.56
8142.9
8134.04
8125.01
8115.69
8106.28
8097.15
8088.07
8078.65
8069.05
8059.32
8049.62
8039.89
8030.02
8020.02
8009.9
7999.81
7989.73
7979.5
7969.19
7958.77
7948.2
7937.61
7927.26
7916.84
7906.26
7895.61
7884.93
7874.28
7863.62
7852.87
7842
7831.19
7820.63
7809.96
7799.02
7788.34
7777.72
7767.15
7756.92
7746.53
7736.08
7725.69
7715.27
7704.84
7694.65
7684.63
7674.78
7664.82
7654.89
7645.2
7635.49
7625.82
7616.12
7606.63
7597.45
7588.43
7579.72
7570.83
7561.84
7552.7
7543.09
7533.18
7523.71
7514.89
7506.38
7498.81
7492.6
7482.06
7465.72
7457.55
7447.47
7437.93
7428.2
7418.28
7407.78
7398.49
7388.49
7379.01
7369.17
7359.67
7350.44
7341.91
7333.28
7324.65
7316.03
7307.52
7299.31
7291.5
7284.18
7276.88
7269.61
7262.76
7255.85
7249.32
7242.85
7236.92
7230.97
7225.53
7220.06
7215.29
7210.61
7206.44
7202.08
7198.37
7194.27
7191.21
7189.27
7187.15
7185.69
7184.23
7183.26
7182.72
7182.78
7183.11
7184
7185.32
7187.08
7189.29
7192.08
7195.28
7198.83
7202.94
7207.52
7212.65
7218.16
7224.02
7230.4
7237.23
7244.6
7252.29
7260.31
7268.69
7277.54
7286.77
7296.44
7306.41
7316.66
7327.18
7338.04
7349.22
7360.68
7372.44
7384.42
7396.61
7409.06
7421.74
7434.49
7447.42
7460.54
7473.78
7487.19
7500.66
7514.11
7527.68
7541.29
7554.93
7568.58
7582.17
7595.78
7609.33
7622.77
7636.08
7649.36
7662.52
7675.57
7688.54
7701.29
7713.86
7726.23
7738.37
7750.34
7762.12
7773.67
7785.01
7796.15
7806.98
7817.55
7827.81
7837.82
7847.63
7857.16
7866.38
7875.29
7883.93
7892.36
7900.48
7908.32
7915.88
7923.19
7930.27
7937.11
7943.68
7949.99
7956.07
7961.97
7967.67
7973.2
7978.52
7983.64
7988.56
7993.37
7998.04
8002.61
8007.02
8011.29
8015.47
8019.54
8023.48
8027.33
8031.1
8034.77
8038.31
8041.71
8044.94
8048.07
8051.09
8053.95
8056.64
8059.15
8061.54
8063.78
8065.9
8067.82
8069.58
8071.18
8072.66
8073.95
8075.08
8076.08
8076.96
8077.66
8078.2
8078.61
8078.91
8079.07
8079.08
8078.96
8078.7
8078.33
8077.85
8077.27
8076.6
8075.8
8074.89
8073.89
8072.78
8071.6
8070.34
8069.01
8067.6
8066.1
8064.53
8062.92
8061.25
8059.51
8057.71
8055.87
8053.99
8052.08
8050.11
8048.1
8046.06
8044
8041.92
8039.81
8037.65
8035.49
8033.32
8031.13
8028.92
8026.69
8024.45
8022.22
8019.97
8017.72
8015.46
8013.19
8010.92
8008.66
8006.4
8004.13
8001.86
7999.6
7997.34
7995.09
7992.83
7990.59
7988.36
7986.12
7983.9
7981.68
7979.47
7977.27
7975.08
7972.9
7970.73
7968.57
7966.42
7964.28
7962.15
7960.04
7957.93
7955.84
7953.77
7951.7
7949.65
7947.62
7945.6
7943.59
7941.61
7939.63
7937.68
7935.73
7933.81
7931.91
7930.02
7928.15
7926.3
7924.47
7922.66
7920.86
7919.09
7917.34
7915.61
7913.89
7912.2
7910.53
7908.88
7907.26
7905.65
7904.07
7902.51
7900.97
7899.45
7897.96
7896.48
7895.03
7893.61
7892.2
7890.82
7889.46
7888.12
7886.8
7885.51
7884.23
7882.98
7881.75
7880.54
7879.36
7878.19
7877.05
7875.92
7874.82
7873.73
7872.67
7871.63
7870.6
7869.6
7868.61
7867.64
7866.69
7865.76
7864.85
7863.96
7863.08
7862.22
7861.38
7860.55
7859.74
7858.94
7858.16
7857.4
7856.65
7855.92
7855.2
7854.49
7853.8
7853.12
7852.46
7851.81
7851.17
7850.54
7849.93
7849.33
7848.74
7848.16
7847.59
7847.04
7846.49
7845.96
7845.44
7844.92
7844.42
7843.92
7843.44
7842.96
7842.5
7842.03
7841.58
7841.13
7840.71
7840.3
7839.89
7839.49
7839.09
7838.7
7838.32
7837.94
7837.57
7837.2
7836.84
7836.49
7836.14
7835.8
7835.46
7835.13
7834.8
7834.48
7834.16
7833.86
7833.55
7833.25
7832.96
7832.67
7832.4
7832.11
7831.85
7831.58
7831.33
7831.06
7830.83
7830.57
7830.34
7830.12
7829.9
7829.69
7829.45
7829.26
7828.95
7828.81
7828.68
7828.53
7828.38
7828.23
7828.08
7827.93
7827.78
7827.64
7827.5
7827.37
7827.23
7827.1
7826.97
7826.84
7826.71
7826.58
7826.46
7826.33
7826.2
7826.08
7825.96
7825.84
7825.72
7825.6
7825.49
7825.37
7825.26
7825.15
7825.04
7824.93
7824.83
7824.72
7824.62
7824.52
7824.43
7824.33
7824.24
7824.14
7824.05
7823.97
7823.88
7823.8
7823.71
7823.63
7823.56
7823.48
7823.4
7823.33
7823.26
7823.19
7823.13
7823.06
7823
7822.94
7822.88
7822.82
7822.77
7822.71
7822.66
7822.61
7822.57
7822.52
7822.48
7822.44
7822.4
7822.36
7822.33
7822.29
7822.26
7822.23
7822.2
7822.18
7822.15
7822.13
7822.11
7822.09
7822.07
7822.06
7822.04
7822.03
7822.02
7822.02
7822.01
7822.01
7822
7822
7822.01
7821.99
7822.03
8306.52
8296.28
8289.4
8283.48
8276.09
8268.9
8261.9
8255.02
8247.97
8240.78
8233.47
8225.98
8218.34
8210.55
8202.61
8194.54
8186.35
8178.02
8169.57
8160.97
8152.31
8143.55
8134.66
8125.66
8116.49
8107.09
8097.88
8088.64
8079.17
8069.59
8059.92
8050.16
8040.33
8030.41
8020.43
8010.37
8000.23
7990.03
7979.76
7969.44
7959
7948.52
7937.97
7927.4
7916.81
7906.24
7895.62
7884.94
7874.22
7863.49
7852.71
7841.91
7831.15
7820.47
7809.74
7798.92
7787.95
7777.08
7766.44
7756.16
7745.79
7735.29
7724.83
7714.46
7704.13
7693.82
7683.47
7673.25
7663.19
7653.36
7643.62
7633.81
7624.05
7614.32
7604.55
7595.02
7585.76
7576.84
7567.69
7558.48
7549.16
7539.75
7530.38
7521.06
7511.41
7501.62
7492.27
7483.31
7475.06
7467.66
7461.35
7450.47
7434.05
7426.53
7416.6
7407.11
7397.59
7387.9
7377.47
7368.59
7358.86
7349.8
7340.37
7331.69
7322.99
7314.85
7306.99
7298.54
7290.8
7282.25
7274.5
7267.22
7260.22
7253.97
7247.14
7241.08
7234.71
7228.89
7223.13
7218.14
7213.09
7208.63
7204.1
7200.22
7196.38
7193.19
7189.74
7187.22
7184.02
7182.05
7181.48
7180.38
7180.36
7180.1
7180.5
7181.03
7182.13
7184.01
7186.24
7189.19
7192.42
7196.05
7200.05
7204.67
7209.74
7215.38
7221.43
7227.83
7234.61
7242.03
7249.82
7257.85
7266.31
7275.22
7284.55
7294.31
7304.3
7314.63
7325.28
7336.18
7347.38
7358.92
7370.72
7382.85
7395.2
7407.71
7420.4
7433.21
7446.25
7459.46
7472.79
7486.33
7499.88
7513.43
7527.04
7540.73
7554.45
7568.21
7581.95
7595.6
7609.14
7622.61
7636.06
7649.41
7662.67
7675.85
7688.81
7701.6
7714.2
7726.6
7738.81
7750.83
7762.64
7774.21
7785.56
7796.74
7807.61
7818.21
7828.52
7838.52
7848.3
7857.84
7867.12
7876.07
7884.73
7893.06
7901.18
7909.04
7916.65
7924.05
7931.13
7937.95
7944.49
7950.81
7956.94
7962.86
7968.57
7974.08
7979.45
7984.57
7989.53
7994.36
7999.06
8003.64
8008.03
8012.31
8016.5
8020.62
8024.62
8028.45
8032.18
8035.83
8039.4
8042.79
8046.05
8049.19
8052.2
8055.09
8057.75
8060.27
8062.67
8064.9
8067.02
8068.96
8070.72
8072.29
8073.73
8075.02
8076.17
8077.16
8078.03
8078.72
8079.24
8079.62
8079.88
8080.04
8080.05
8079.88
8079.61
8079.22
8078.73
8078.12
8077.43
8076.6
8075.68
8074.65
8073.51
8072.29
8071.01
8069.67
8068.22
8066.68
8065.1
8063.46
8061.78
8060.02
8058.18
8056.32
8054.42
8052.47
8050.48
8048.46
8046.41
8044.34
8042.21
8040.07
8037.91
8035.74
8033.56
8031.36
8029.12
8026.88
8024.63
8022.38
8020.12
8017.87
8015.6
8013.32
8011.04
8008.76
8006.49
8004.21
8001.94
7999.68
7997.42
7995.15
7992.89
7990.65
7988.41
7986.17
7983.93
7981.71
7979.5
7977.3
7975.11
7972.91
7970.74
7968.57
7966.42
7964.28
7962.15
7960.03
7957.92
7955.83
7953.74
7951.68
7949.63
7947.59
7945.56
7943.55
7941.56
7939.59
7937.63
7935.69
7933.76
7931.85
7929.95
7928.08
7926.23
7924.39
7922.58
7920.78
7919.01
7917.25
7915.52
7913.8
7912.11
7910.43
7908.78
7907.15
7905.55
7903.96
7902.4
7900.85
7899.34
7897.84
7896.37
7894.92
7893.49
7892.08
7890.69
7889.33
7888
7886.68
7885.38
7884.11
7882.86
7881.63
7880.42
7879.23
7878.06
7876.92
7875.8
7874.69
7873.61
7872.55
7871.5
7870.48
7869.48
7868.49
7867.52
7866.58
7865.65
7864.74
7863.84
7862.97
7862.11
7861.26
7860.44
7859.63
7858.84
7858.06
7857.29
7856.55
7855.81
7855.1
7854.39
7853.7
7853.02
7852.36
7851.71
7851.08
7850.45
7849.84
7849.24
7848.65
7848.07
7847.51
7846.95
7846.41
7845.88
7845.35
7844.84
7844.34
7843.85
7843.36
7842.89
7842.41
7841.96
7841.53
7841.1
7840.68
7840.26
7839.85
7839.45
7839.05
7838.66
7838.27
7837.89
7837.52
7837.16
7836.8
7836.44
7836.09
7835.75
7835.41
7835.08
7834.75
7834.43
7834.12
7833.81
7833.5
7833.21
7832.91
7832.63
7832.34
7832.07
7831.78
7831.54
7831.25
7831.02
7830.78
7830.55
7830.32
7830.07
7829.86
7829.52
7829.37
7829.22
7829.06
7828.89
7828.72
7828.55
7828.39
7828.24
7828.08
7827.93
7827.79
7827.64
7827.5
7827.36
7827.23
7827.09
7826.96
7826.82
7826.69
7826.56
7826.44
7826.31
7826.19
7826.06
7825.94
7825.82
7825.7
7825.58
7825.47
7825.35
7825.24
7825.13
7825.02
7824.91
7824.81
7824.7
7824.6
7824.5
7824.41
7824.31
7824.22
7824.12
7824.03
7823.95
7823.86
7823.77
7823.69
7823.61
7823.53
7823.46
7823.38
7823.31
7823.24
7823.17
7823.11
7823.04
7822.98
7822.92
7822.86
7822.8
7822.75
7822.7
7822.64
7822.6
7822.55
7822.5
7822.46
7822.42
7822.38
7822.34
7822.31
7822.27
7822.24
7822.21
7822.18
7822.16
7822.13
7822.11
7822.09
7822.07
7822.05
7822.04
7822.02
7822.01
7822
7822
7821.99
7821.99
7821.99
7821.99
7822
7821.98
7822.01
8308.06
8298.05
8291.49
8285.12
8277.97
8270.82
8263.64
8256.5
8249.3
8241.99
8234.56
8227
8219.31
8211.48
8203.52
8195.44
8187.22
8178.89
8170.43
8161.85
8153.16
8144.36
8135.44
8126.43
8117.3
8108.05
8098.73
8089.33
8079.82
8070.21
8060.51
8050.7
8040.8
8030.85
8020.88
8010.79
8000.6
7990.31
7979.98
7969.64
7959.23
7948.72
7938.15
7927.37
7916.34
7905.7
7895.53
7884.84
7874.08
7863.29
7852.45
7841.61
7830.85
7820.05
7809.25
7798.47
7787.66
7776.85
7766.06
7755.17
7744.48
7734.12
7723.78
7713.32
7702.89
7692.52
7682.2
7671.88
7661.49
7651.28
7641.58
7631.72
7621.81
7612.05
7602.27
7592.44
7582.83
7573.64
7564.24
7554.68
7545.38
7536.17
7526.83
7517.43
7507.95
7498.51
7489.21
7479.89
7470.42
7461.09
7452.33
7444.08
7436.82
7429.8
7418.28
7401.87
7395.22
7385.76
7376.48
7366.93
7357.27
7347.55
7339.25
7330.11
7321.42
7312.53
7303.95
7295.85
7288.05
7280.82
7273.45
7265.86
7257.82
7250.53
7243.77
7237.48
7232.2
7225.99
7220.71
7215.15
7210.33
7205.51
7201.43
7197.25
7193.73
7190.05
7187.17
7184.6
7182.61
7180.15
7178.66
7176.25
7175.41
7176.5
7176.77
7177.78
7179.19
7180.71
7182.61
7185.42
7188.79
7192.48
7196.74
7201.21
7206.26
7211.97
7218.06
7224.55
7231.48
7238.91
7246.71
7254.87
7263.35
7272.41
7281.89
7291.59
7301.61
7311.96
7322.77
7333.86
7345.2
7356.8
7368.7
7380.9
7393.3
7405.92
7418.72
7431.7
7444.89
7458.23
7471.66
7485.23
7498.88
7512.6
7526.31
7540.07
7553.99
7567.82
7581.61
7595.34
7608.97
7622.54
7636.17
7649.6
7662.94
7676.12
7689.14
7701.95
7714.54
7727.08
7739.46
7751.55
7763.41
7775.02
7786.34
7797.42
7808.42
7819.06
7829.42
7839.46
7849.22
7858.82
7868.07
7877.06
7885.74
7894.08
7902.2
7910.08
7917.78
7925.15
7932.24
7939.05
7945.57
7951.94
7958.17
7964.14
7969.87
7975.37
7980.67
7985.85
7990.88
7995.78
8000.48
8004.99
8009.41
8013.72
8017.96
8022.1
8026.09
8029.95
8033.66
8037.28
8040.8
8044.21
8047.52
8050.69
8053.7
8056.55
8059.23
8061.72
8064.12
8066.4
8068.49
8070.37
8072.1
8073.7
8075.13
8076.43
8077.6
8078.58
8079.4
8080.04
8080.53
8080.91
8081.15
8081.27
8081.28
8081.08
8080.77
8080.36
8079.87
8079.23
8078.46
8077.59
8076.64
8075.6
8074.44
8073.18
8071.88
8070.49
8068.99
8067.43
8065.81
8064.16
8062.44
8060.65
8058.79
8056.88
8054.95
8052.99
8050.98
8048.93
8046.86
8044.75
8042.59
8040.43
8038.25
8036.08
8033.87
8031.62
8029.38
8027.13
8024.87
8022.6
8020.34
8018.06
8015.76
8013.48
8011.19
8008.92
8006.63
8004.34
8002.05
7999.78
7997.52
7995.24
7992.97
7990.71
7988.47
7986.23
7983.99
7981.75
7979.54
7977.34
7975.14
7972.94
7970.76
7968.6
7966.44
7964.29
7962.15
7960.03
7957.92
7955.82
7953.73
7951.65
7949.6
7947.56
7945.53
7943.51
7941.52
7939.54
7937.57
7935.62
7933.69
7931.78
7929.88
7928
7926.14
7924.3
7922.48
7920.68
7918.9
7917.14
7915.4
7913.69
7911.99
7910.31
7908.66
7907.02
7905.41
7903.83
7902.26
7900.72
7899.19
7897.7
7896.22
7894.77
7893.34
7891.93
7890.54
7889.18
7887.84
7886.52
7885.22
7883.95
7882.7
7881.47
7880.26
7879.07
7877.91
7876.76
7875.64
7874.54
7873.45
7872.39
7871.35
7870.33
7869.32
7868.34
7867.38
7866.43
7865.5
7864.59
7863.7
7862.82
7861.97
7861.13
7860.3
7859.49
7858.7
7857.93
7857.16
7856.42
7855.69
7854.97
7854.27
7853.58
7852.91
7852.24
7851.6
7850.96
7850.34
7849.73
7849.13
7848.54
7847.97
7847.4
7846.85
7846.31
7845.78
7845.27
7844.74
7844.24
7843.74
7843.26
7842.82
7842.36
7841.92
7841.48
7841.05
7840.62
7840.21
7839.79
7839.39
7838.99
7838.6
7838.21
7837.83
7837.46
7837.09
7836.73
7836.38
7836.03
7835.69
7835.35
7835.02
7834.69
7834.37
7834.06
7833.74
7833.44
7833.13
7832.85
7832.55
7832.28
7831.97
7831.73
7831.46
7831.23
7830.93
7830.72
7830.35
7830.18
7830.03
7829.86
7829.67
7829.49
7829.3
7829.12
7828.95
7828.78
7828.61
7828.44
7828.28
7828.12
7827.97
7827.82
7827.67
7827.52
7827.38
7827.24
7827.1
7826.96
7826.83
7826.69
7826.56
7826.43
7826.3
7826.18
7826.05
7825.93
7825.8
7825.68
7825.57
7825.45
7825.33
7825.22
7825.11
7825
7824.89
7824.79
7824.68
7824.58
7824.48
7824.38
7824.29
7824.19
7824.1
7824.01
7823.92
7823.84
7823.75
7823.67
7823.59
7823.51
7823.43
7823.36
7823.29
7823.22
7823.15
7823.08
7823.02
7822.96
7822.89
7822.84
7822.78
7822.72
7822.67
7822.62
7822.57
7822.53
7822.48
7822.44
7822.4
7822.36
7822.32
7822.28
7822.25
7822.22
7822.19
7822.16
7822.13
7822.11
7822.09
7822.07
7822.05
7822.03
7822.02
7822
7821.99
7821.98
7821.97
7821.97
7821.96
7821.96
7821.96
7821.97
7821.95
7821.99
8309.62
8299.37
8292.92
8286.65
8279.63
8272.54
8265.34
8258.11
8250.81
8243.4
8235.9
8228.29
8220.54
8212.66
8204.67
8196.55
8188.3
8179.96
8171.49
8162.89
8154.17
8145.34
8136.4
8127.34
8118.16
8108.91
8099.6
8090.16
8080.6
8070.96
8061.2
8051.19
8041
8031.27
8021.43
8011.31
8000.97
7990.17
7979.38
7969.8
7959.51
7948.95
7938.1
7926.86
7915.96
7905.24
7894.92
7884.67
7873.91
7863.06
7852.18
7841.3
7830.42
7819.53
7808.65
7797.8
7786.95
7776.09
7765.08
7754.03
7743.31
7732.75
7722.49
7711.94
7701.41
7690.92
7680.49
7670.04
7659.45
7649.14
7639.04
7629.34
7619.46
7609.5
7599.59
7589.74
7579.95
7570.01
7560.27
7550.69
7541.47
7532.21
7522.75
7513.12
7503.53
7494.4
7485.29
7475.99
7466.71
7457.45
7448.02
7438.48
7429.22
7420.64
7412.43
7405.61
7398.25
7386.28
7370.2
7364.36
7355.31
7346.65
7337.16
7327.83
7318.73
7310.95
7302.27
7294.19
7286.19
7278.21
7270.22
7262.69
7255.93
7249.03
7242.21
7234.91
7228.37
7222.03
7216.42
7212.21
7206.86
7202.71
7198.14
7194.2
7190.42
7187.42
7184.07
7181.67
7179.03
7177.31
7175.85
7174.77
7173.91
7173.1
7173.1
7172.12
7172.94
7175.96
7177.99
7181.49
7184.54
7188.03
7192.14
7197.01
7202.11
7207.74
7213.77
7220.56
7227.57
7235.05
7242.85
7251.05
7259.9
7269.02
7278.48
7288.29
7298.37
7308.75
7319.71
7330.98
7342.44
7354.19
7366.21
7378.49
7390.96
7403.66
7416.67
7429.87
7443.18
7456.64
7470.22
7483.89
7497.66
7511.49
7525.36
7539.35
7553.33
7567.27
7581.18
7595.01
7608.73
7622.45
7636.22
7649.76
7663.17
7676.44
7689.55
7702.45
7715.09
7727.63
7740.14
7752.32
7764.25
7775.93
7787.3
7798.39
7809.31
7820.09
7830.53
7840.65
7850.48
7859.96
7869.17
7878.26
7887.02
7895.44
7903.53
7911.46
7919.17
7926.56
7933.68
7940.49
7947.05
7953.47
7959.75
7965.73
7971.48
7977.05
7982.39
7987.53
7992.61
7997.52
8002.25
8006.84
8011.21
8015.56
8019.82
8023.94
8027.93
8031.8
8035.56
8039.17
8042.62
8046.07
8049.37
8052.52
8055.51
8058.36
8061.05
8063.54
8065.95
8068.2
8070.26
8072.16
8073.87
8075.43
8076.87
8078.18
8079.3
8080.25
8081.04
8081.66
8082.12
8082.48
8082.73
8082.82
8082.76
8082.56
8082.17
8081.75
8081.22
8080.53
8079.74
8078.81
8077.8
8076.73
8075.55
8074.27
8072.91
8071.47
8069.93
8068.32
8066.7
8065
8063.23
8061.4
8059.52
8057.59
8055.59
8053.59
8051.57
8049.49
8047.38
8045.24
8043.06
8040.87
8038.68
8036.46
8034.22
8031.95
8029.7
8027.44
8025.16
8022.87
8020.58
8018.28
8015.97
8013.68
8011.38
8009.08
8006.79
8004.49
8002.19
7999.91
7997.63
7995.35
7993.07
7990.81
7988.55
7986.3
7984.06
7981.82
7979.6
7977.38
7975.18
7972.98
7970.79
7968.62
7966.45
7964.3
7962.15
7960.02
7957.91
7955.8
7953.71
7951.63
7949.57
7947.52
7945.48
7943.46
7941.46
7939.47
7937.5
7935.55
7933.61
7931.69
7929.79
7927.91
7926.04
7924.2
7922.37
7920.56
7918.78
7917.01
7915.27
7913.55
7911.84
7910.16
7908.51
7906.87
7905.26
7903.66
7902.09
7900.55
7899.02
7897.52
7896.04
7894.59
7893.16
7891.74
7890.36
7888.99
7887.65
7886.33
7885.04
7883.76
7882.51
7881.28
7880.07
7878.89
7877.72
7876.58
7875.45
7874.35
7873.27
7872.21
7871.17
7870.15
7869.14
7868.16
7867.2
7866.25
7865.33
7864.42
7863.53
7862.65
7861.8
7860.96
7860.14
7859.33
7858.54
7857.77
7857.01
7856.26
7855.53