0 	0.9999658
0.006666667 	0.9999675
0.01333333 	0.9999691
0.02 	0.9999707
0.02666667 	0.9999723
0.03333333 	0.9999739
0.04 	0.9999755
0.04666667 	0.999977
0.05333333 	0.9999785
0.06 	0.99998
0.06666667 	0.9999815
0.07333333 	0.999975
0.08 	0.9999685
0.08666667 	0.9999619
0.09333333 	0.9999554
0.1 	0.9999488
0.1066667 	0.9999378
0.1133333 	0.9999268
0.12 	0.9999158
0.1266667 	0.9999048
0.1333333 	0.9998937
0.14 	0.9998907
0.1466667 	0.9998876
0.1533333 	0.9998845
0.16 	0.9998814
0.1666667 	0.9998783
0.1733333 	0.9998818
0.18 	0.9998854
0.1866667 	0.999889
0.1933333 	0.9998925
0.2 	0.9998961
0.2066667 	0.9998969
0.2133333 	0.9998978
0.22 	0.9998987
0.2266667 	0.9998996
0.2333333 	0.9999005
0.24 	0.9999029
0.2466667 	0.9999054
0.2533333 	0.9999079
0.26 	0.9999103
0.2666667 	0.9999128
0.2733333 	0.9999209
0.28 	0.9999291
0.2866667 	0.9999372
0.2933333 	0.9999453
0.3 	0.9999535
0.3066667 	0.9999597
0.3133333 	0.999966
0.32 	0.9999723
0.3266667 	0.9999786
0.3333333 	0.9999848
0.34 	0.9999861
0.3466667 	0.9999874
0.3533333 	0.9999887
0.36 	0.99999
0.3666667 	0.9999912
0.3733333 	0.9999853
0.38 	0.9999794
0.3866667 	0.9999734
0.3933333 	0.9999675
0.4 	0.9999615
0.4066667 	0.9999471
0.4133333 	0.9999326
0.42 	0.9999181
0.4266667 	0.9999036
0.4333333 	0.9998891
0.44 	0.9998917
0.4466667 	0.9998943
0.4533333 	0.9998969
0.46 	0.9998995
0.4666667 	0.9999021
0.4733333 	0.9999175
0.48 	0.9999328
0.4866667 	0.9999482
0.4933333 	0.9999636
0.5 	0.999979
0.5066667 	0.9999831
0.5133333 	0.9999873
0.52 	0.9999915
0.5266667 	0.9999957
0.5333333 	0.9999999
0.54 	0.9999998
0.5466667 	0.9999998
0.5533333 	0.9999997
0.56 	0.9999997
0.5666667 	0.9999997
0.5733333 	0.9999969
0.58 	0.9999941
0.5866667 	0.9999913
0.5933333 	0.9999886
0.6 	0.9999858
0.6066667 	0.9999812
0.6133333 	0.9999766
0.62 	0.9999719
0.6266667 	0.9999673
0.6333333 	0.9999627
0.64 	0.9999624
0.6466667 	0.999962
0.6533333 	0.9999617
0.66 	0.9999613
0.6666667 	0.999961
0.6733333 	0.9999655
0.68 	0.99997
0.6866667 	0.9999745
0.6933333 	0.999979
0.7 	0.9999834
0.7066667 	0.999986
0.7133333 	0.9999885
0.72 	0.999991
0.7266667 	0.9999936
0.7333333 	0.9999961
0.74 	0.9999844
0.7466667 	0.9999727
0.7533333 	0.999961
0.76 	0.9999493
0.7666667 	0.9999376
0.7733333 	0.9983774
0.78 	0.9968172
0.7866667 	0.9952569
0.7933333 	0.9936967
0.8 	0.9921365
0.8066667 	0.9640985
0.8133333 	0.9360606
0.82 	0.9080226
0.8266667 	0.8799847
0.8333333 	0.8519467
0.84 	0.7634121
0.8466667 	0.6748774
0.8533333 	0.5863427
0.86 	0.497808
0.8666667 	0.4092733
0.8733333 	0.3375061
0.88 	0.2657389
0.8866667 	0.1939717
0.8933333 	0.1222046
0.9 	0.05043736
0.9066667 	0.04053653
0.9133333 	0.0306357
0.92 	0.02073488
0.9266667 	0.01083405
0.9333333 	0.0009332159
0.94 	0.0007505657
0.9466667 	0.0005679155
0.9533333 	0.0003852654
0.96 	0.0002026152
0.9666667 	1.996499e-05
0.9733333 	1.604877e-05
0.98 	1.213254e-05
0.9866667 	8.216311e-06
0.9933333 	4.300084e-06
1 	3.838572e-07
1.006667 	3.088208e-07
1.013333 	2.337844e-07
1.02 	1.58748e-07
1.026667 	8.37116e-08
1.033333 	8.675204e-09
1.04 	6.944962e-09
1.046667 	5.214721e-09
1.053333 	3.484479e-09
1.06 	1.754238e-09
1.066667 	2.399644e-11
1.073333 	1.920054e-11
1.08 	1.440473e-11
1.086667 	9.608919e-12
1.093333 	4.813107e-12
1.1 	1.729471e-14
1.106667 	1.45527e-14
1.113333 	1.18107e-14
1.12 	9.06869e-15
1.126667 	6.326682e-15
1.133333 	3.584675e-15
1.14 	2.937946e-15
1.146667 	2.291216e-15
1.153333 	1.644487e-15
1.16 	9.977576e-16
1.166667 	3.510282e-16
1.173333 	2.817983e-16
1.18 	2.125684e-16
1.186667 	1.433384e-16
1.193333 	7.410853e-17
1.2 	4.87862e-18
1.206667 	3.904202e-18
1.213333 	2.929784e-18
1.22 	1.955366e-18
1.226667 	9.809483e-19
1.233333 	6.530375e-21
1.24 	5.22437e-21
1.246667 	3.918365e-21
1.253333 	2.61236e-21
1.26 	1.306355e-21
1.266667 	3.496752e-25
1.273333 	2.796894e-25
1.28 	2.097688e-25
1.286667 	1.398483e-25
1.293333 	6.992781e-26
1.3 	7.288854e-30
1.306667 	5.83111e-30
1.313333 	4.373366e-30
1.32 	2.915622e-30
1.326667 	1.457877e-30
1.333333 	1.331176e-34
1.34 	1.064945e-34
1.346667 	7.987139e-35
1.353333 	5.324829e-35
1.36 	2.662519e-35
1.366667 	2.083946e-39
1.373333 	1.666098e-39
1.38 	1.24958e-39
1.386667 	8.330626e-40
1.393333 	4.165451e-40
1.4 	2.761635e-44
1.406667 	2.209315e-44
1.413333 	1.656994e-44
1.42 	1.104673e-44
1.426667 	5.523521e-45
1.433333 	3.129874e-49
1.44 	2.503906e-49
1.446667 	1.877937e-49
1.453333 	1.251969e-49
1.46 	6.260004e-50
1.466667 	3.196662e-54
1.473333 	2.554832e-54
1.48 	1.916132e-54
1.486667 	1.277431e-54
1.493333 	6.387309e-55
1.5 	3.051707e-59
1.506667 	2.441371e-59
1.513333 	1.831036e-59
1.52 	1.2207e-59
1.526667 	6.103649e-60
1.533333 	2.946319e-64
1.54 	2.357062e-64
1.546667 	1.767805e-64
1.553333 	1.178548e-64
1.56 	5.892911e-65
1.566667 	3.411536e-69
1.573333 	2.726884e-69
1.58 	2.045178e-69
1.586667 	1.363472e-69
1.593333 	6.817663e-70
1.6 	6.039963e-74
1.606667 	4.832001e-74
1.613333 	3.624039e-74
1.62 	2.416077e-74
1.626667 	1.208115e-74
1.633333 	1.533603e-78
1.64 	1.226891e-78
1.646667 	9.201795e-79
1.653333 	6.134674e-79
1.66 	3.067554e-79
1.666667 	4.341508e-83
1.673333 	3.472003e-83
1.68 	2.604032e-83
1.686667 	1.736061e-83
1.693333 	8.680895e-84
1.7 	1.18271e-87
1.706667 	9.461736e-88
1.713333 	7.096376e-88
1.72 	4.731016e-88
1.726667 	2.365657e-88
1.733333 	2.970351e-92
1.74 	2.376294e-92
1.746667 	1.782238e-92
1.753333 	1.188181e-92
1.76 	5.941246e-93
1.766667 	6.806106e-97
1.773333 	5.442537e-97
1.78 	4.081939e-97
1.786667 	2.72134e-97
1.793333 	1.360741e-97
1.8 	1.429251e-101
1.806667 	1.143406e-101
1.813333 	8.575616e-102
1.82 	5.717171e-102
1.826667 	2.858725e-102
1.833333 	2.801267e-106
1.84 	2.241024e-106
1.846667 	1.680781e-106
1.853333 	1.120538e-106
1.86 	5.60295e-107
1.866667 	5.208226e-111
1.873333 	4.164359e-111
1.88 	3.123292e-111
1.886667 	2.082225e-111
1.893333 	1.041158e-111
1.9 	9.181586e-116
1.906667 	7.345299e-116
1.913333 	5.509013e-116
1.92 	3.672727e-116
1.926667 	1.836441e-116
1.933333 	1.548465e-120
1.94 	1.238777e-120
1.946667 	9.29089e-121
1.953333 	6.19401e-121
1.96 	3.097131e-121
1.966667 	2.510077e-125
1.973333 	2.006823e-125
1.98 	1.505117e-125
1.986667 	1.003411e-125
1.993333 	5.017057e-126
2 	5.848555e-138
