/*--------------------------------*- C++ -*----------------------------------*\
| =========                 |                                                 |
| \\      /  F ield         | OpenFOAM: The Open Source CFD Toolbox           |
|  \\    /   O peration     | Version:  v2006                                 |
|   \\  /    A nd           | Website:  www.openfoam.com                      |
|    \\/     M anipulation  |                                                 |
\*---------------------------------------------------------------------------*/
FoamFile
{
    version     2.0;
    format      ascii;
    class       volScalarField;
    location    "4.2";
    object      k;
}
// * * * * * * * * * * * * * * * * * * * * * * * * * * * * * * * * * * * * * //

dimensions      [0 2 -2 0 0 0 0];


internalField   nonuniform List<scalar> 
33000
(
1.70906e-08
2.86842e-08
4.65367e-08
6.45436e-08
7.85816e-08
8.7034e-08
9.16549e-08
9.43937e-08
9.61753e-08
9.73367e-08
9.8109e-08
9.86962e-08
9.92174e-08
9.97218e-08
1.00229e-07
1.0067e-07
1.00987e-07
1.01154e-07
1.01304e-07
1.01559e-07
1.01951e-07
1.0255e-07
1.03305e-07
1.04119e-07
1.04788e-07
1.05248e-07
1.05505e-07
1.05688e-07
1.05852e-07
1.06004e-07
1.06143e-07
1.0627e-07
1.0638e-07
1.0646e-07
1.0648e-07
1.06407e-07
1.06226e-07
1.05955e-07
1.05634e-07
1.053e-07
1.04967e-07
1.04621e-07
1.04231e-07
1.03777e-07
1.03265e-07
1.02724e-07
1.02192e-07
1.017e-07
1.01265e-07
1.00892e-07
1.00575e-07
1.00293e-07
9.99953e-08
9.9597e-08
9.89996e-08
9.81328e-08
9.69763e-08
9.55346e-08
9.37898e-08
9.16796e-08
8.91162e-08
8.60413e-08
8.24682e-08
7.87351e-08
7.5407e-08
7.23415e-08
6.93092e-08
6.62919e-08
6.34761e-08
6.10597e-08
5.92454e-08
5.81897e-08
5.80375e-08
5.88975e-08
6.06557e-08
6.30729e-08
6.57281e-08
6.84602e-08
7.13308e-08
7.45834e-08
7.67831e-08
7.54911e-08
7.42606e-08
7.31792e-08
7.23007e-08
7.17815e-08
7.16361e-08
7.16632e-08
7.09133e-08
6.93661e-08
6.74674e-08
6.48365e-08
6.19599e-08
5.88848e-08
5.54861e-08
5.25594e-08
5.02506e-08
4.93531e-08
5.00142e-08
5.30191e-08
5.54843e-08
5.4839e-08
5.39162e-08
5.34495e-08
5.33203e-08
5.32063e-08
5.28986e-08
5.24198e-08
5.18905e-08
5.13572e-08
5.07568e-08
4.99886e-08
4.89203e-08
4.74455e-08
4.58341e-08
4.46551e-08
4.43147e-08
4.57011e-08
4.71346e-08
4.72163e-08
4.71205e-08
4.70829e-08
4.71419e-08
4.72536e-08
4.73547e-08
4.74184e-08
4.74498e-08
4.74688e-08
4.74862e-08
4.75009e-08
4.75109e-08
4.7512e-08
4.74973e-08
4.74671e-08
4.74302e-08
4.73933e-08
4.73577e-08
4.73204e-08
4.72813e-08
4.72409e-08
4.71949e-08
4.71348e-08
4.70632e-08
4.69915e-08
4.69218e-08
4.68445e-08
4.67568e-08
4.66645e-08
4.65749e-08
4.64899e-08
4.64006e-08
4.62983e-08
4.61861e-08
4.6078e-08
4.59828e-08
4.58938e-08
4.57978e-08
4.56881e-08
4.55793e-08
4.54855e-08
4.54011e-08
4.53104e-08
4.52076e-08
4.51116e-08
4.50299e-08
4.49487e-08
4.48525e-08
4.47504e-08
4.46644e-08
4.45921e-08
4.45139e-08
4.44209e-08
4.43296e-08
4.42574e-08
4.41973e-08
4.4133e-08
4.40595e-08
4.39876e-08
4.39271e-08
4.3878e-08
4.38331e-08
4.37824e-08
4.37297e-08
4.36841e-08
4.36557e-08
4.363e-08
4.35834e-08
4.3531e-08
4.35001e-08
4.34799e-08
4.34502e-08
4.3416e-08
4.33807e-08
4.33447e-08
4.33098e-08
4.32652e-08
4.32169e-08
4.31746e-08
4.31296e-08
4.3074e-08
4.30077e-08
4.29399e-08
4.28841e-08
4.28358e-08
4.2781e-08
4.27171e-08
4.26468e-08
4.25775e-08
4.25173e-08
4.2479e-08
4.24725e-08
4.2495e-08
4.25543e-08
4.26545e-08
4.27835e-08
4.29287e-08
4.30945e-08
4.32711e-08
4.3435e-08
4.35782e-08
4.36858e-08
4.37492e-08
4.37779e-08
4.37787e-08
4.37574e-08
4.37169e-08
4.36504e-08
4.3554e-08
4.34348e-08
4.3296e-08
4.31477e-08
4.29988e-08
4.28507e-08
4.26951e-08
4.25322e-08
4.23657e-08
4.21961e-08
4.20247e-08
4.1851e-08
4.16729e-08
4.149e-08
4.13049e-08
4.11178e-08
4.09269e-08
4.07317e-08
4.05322e-08
4.03314e-08
4.01304e-08
3.99258e-08
3.97171e-08
3.95065e-08
3.92954e-08
3.90823e-08
3.88668e-08
3.86503e-08
3.84325e-08
3.82129e-08
3.79918e-08
3.77697e-08
3.75468e-08
3.73223e-08
3.7096e-08
3.68689e-08
3.66417e-08
3.64139e-08
3.61855e-08
3.59565e-08
3.57266e-08
3.54961e-08
3.52653e-08
3.50349e-08
3.48042e-08
3.45732e-08
3.43415e-08
3.41095e-08
3.38775e-08
3.36454e-08
3.34133e-08
3.31812e-08
3.29496e-08
3.2719e-08
3.24884e-08
3.22577e-08
3.20268e-08
3.17963e-08
3.15664e-08
3.13368e-08
3.11074e-08
3.0878e-08
3.06489e-08
3.04203e-08
3.01928e-08
2.99666e-08
2.97416e-08
2.95176e-08
2.92952e-08
2.90743e-08
2.88556e-08
2.86392e-08
2.84245e-08
2.8212e-08
2.80015e-08
2.77936e-08
2.75884e-08
2.73855e-08
2.71851e-08
2.69865e-08
2.67909e-08
2.6598e-08
2.64071e-08
2.62183e-08
2.60311e-08
2.58463e-08
2.56643e-08
2.54857e-08
2.53099e-08
2.51372e-08
2.49677e-08
2.48011e-08
2.46368e-08
2.44747e-08
2.43144e-08
2.41567e-08
2.40008e-08
2.38464e-08
2.36933e-08
2.35412e-08
2.33906e-08
2.32409e-08
2.3092e-08
2.29435e-08
2.27953e-08
2.26473e-08
2.24992e-08
2.2351e-08
2.22027e-08
2.20539e-08
2.19047e-08
2.17549e-08
2.1605e-08
2.14544e-08
2.13032e-08
2.11516e-08
2.09994e-08
2.08465e-08
2.06931e-08
2.05391e-08
2.03844e-08
2.0229e-08
2.00728e-08
1.99164e-08
1.97593e-08
1.96018e-08
1.94439e-08
1.92855e-08
1.91272e-08
1.89686e-08
1.88096e-08
1.86506e-08
1.84914e-08
1.83321e-08
1.81727e-08
1.80132e-08
1.78539e-08
1.76948e-08
1.75362e-08
1.73778e-08
1.722e-08
1.70635e-08
1.69085e-08
1.67551e-08
1.66033e-08
1.64531e-08
1.63045e-08
1.61577e-08
1.60125e-08
1.58692e-08
1.57277e-08
1.5588e-08
1.54501e-08
1.53141e-08
1.51799e-08
1.50476e-08
1.49174e-08
1.47891e-08
1.4663e-08
1.4539e-08
1.44169e-08
1.4297e-08
1.41791e-08
1.40631e-08
1.39491e-08
1.3837e-08
1.3727e-08
1.36193e-08
1.35135e-08
1.34098e-08
1.33082e-08
1.32085e-08
1.31106e-08
1.30146e-08
1.29205e-08
1.28284e-08
1.27383e-08
1.26505e-08
1.25646e-08
1.24811e-08
1.23997e-08
1.23198e-08
1.22428e-08
1.21672e-08
1.20943e-08
1.20221e-08
1.19524e-08
1.18849e-08
1.18172e-08
1.17516e-08
1.16871e-08
1.16191e-08
1.15578e-08
1.15041e-08
1.14391e-08
1.13897e-08
1.13296e-08
1.12262e-08
1.11777e-08
1.11667e-08
1.10654e-08
1.11505e-08
1.1172e-08
1.14965e-08
1.14789e-08
1.15974e-08
1.15864e-08
1.16217e-08
1.15999e-08
1.16057e-08
1.15826e-08
1.15744e-08
1.15438e-08
1.15221e-08
1.14887e-08
1.14262e-08
1.13958e-08
1.13803e-08
1.13144e-08
1.13481e-08
1.13392e-08
1.14742e-08
1.14526e-08
1.14766e-08
1.1457e-08
1.14435e-08
1.14191e-08
1.13975e-08
1.13654e-08
1.13339e-08
1.12764e-08
1.12366e-08
1.1212e-08
1.11435e-08
1.11367e-08
1.10657e-08
1.08377e-08
1.08097e-08
1.08594e-08
1.06562e-08
1.12857e-08
1.15549e-08
1.36688e-08
1.38923e-08
1.46834e-08
1.50343e-08
1.53494e-08
1.55751e-08
1.57478e-08
1.58701e-08
1.59519e-08
1.60095e-08
1.60498e-08
1.60771e-08
1.6094e-08
1.61012e-08
1.60987e-08
1.60908e-08
1.60782e-08
1.60616e-08
1.60413e-08
1.60176e-08
1.5991e-08
1.5962e-08
1.59311e-08
1.5899e-08
1.58658e-08
1.58315e-08
1.57959e-08
1.57593e-08
1.57214e-08
1.56822e-08
1.56415e-08
1.55992e-08
1.55552e-08
1.55095e-08
1.54624e-08
1.54141e-08
1.53649e-08
1.53153e-08
1.52654e-08
1.52154e-08
1.51654e-08
1.51157e-08
1.50664e-08
1.50175e-08
1.4969e-08
1.49208e-08
1.48727e-08
1.48246e-08
1.47761e-08
1.47272e-08
1.46777e-08
1.46278e-08
1.45775e-08
1.45271e-08
1.4477e-08
1.44276e-08
1.43785e-08
1.43292e-08
1.42792e-08
1.42288e-08
1.41789e-08
1.41301e-08
1.40825e-08
1.40348e-08
1.39861e-08
1.39369e-08
1.38883e-08
1.38408e-08
1.37932e-08
1.3744e-08
1.3694e-08
1.36442e-08
1.35949e-08
1.3545e-08
1.34943e-08
1.34441e-08
1.33976e-08
1.33395e-08
1.32302e-08
1.33918e-08
1.20076e-08
1.06941e-08
1.26122e-08
2.23243e-08
3.36182e-08
3.89142e-08
3.88564e-08
3.70687e-08
3.53459e-08
3.39866e-08
3.27525e-08
3.1516e-08
3.03212e-08
2.94696e-08
2.91645e-08
2.953e-08
2.98857e-08
2.94602e-08
2.80861e-08
2.67742e-08
2.63561e-08
2.6735e-08
2.73685e-08
2.77376e-08
2.78665e-08
2.77404e-08
2.70452e-08
2.60149e-08
2.53216e-08
2.5341e-08
2.55234e-08
2.51903e-08
2.4134e-08
2.34106e-08
2.35773e-08
2.43382e-08
2.47871e-08
2.42026e-08
2.267e-08
2.12549e-08
2.07729e-08
2.11921e-08
2.16963e-08
2.16274e-08
2.09811e-08
1.99946e-08
1.91653e-08
1.88008e-08
1.87181e-08
1.8639e-08
1.83576e-08
1.80227e-08
1.80102e-08
1.84433e-08
1.88892e-08
1.89815e-08
1.86408e-08
1.81286e-08
1.79323e-08
1.82252e-08
1.86381e-08
1.888e-08
1.90007e-08
1.93608e-08
2.01459e-08
2.11309e-08
2.22626e-08
2.34378e-08
2.4507e-08
2.52763e-08
2.55383e-08
2.55118e-08
2.54159e-08
2.5332e-08
2.52786e-08
2.52463e-08
2.52572e-08
2.53337e-08
2.54467e-08
2.53639e-08
2.48516e-08
2.37786e-08
2.16928e-08
1.89966e-08
1.64347e-08
1.42499e-08
1.21449e-08
1.18202e-08
1.18496e-08
1.19532e-08
1.2171e-08
1.26863e-08
1.33317e-08
1.40298e-08
1.4686e-08
1.51219e-08
1.52278e-08
1.49458e-08
1.43725e-08
1.37038e-08
1.31402e-08
1.28194e-08
1.31778e-08
1.32805e-08
1.30244e-08
1.30152e-08
1.18828e-08
1.12169e-08
1.13192e-08
1.15169e-08
1.1457e-08
1.1367e-08
1.14072e-08
1.14112e-08
1.15574e-08
1.17069e-08
1.16847e-08
1.14993e-08
1.12922e-08
1.12797e-08
1.15411e-08
1.16776e-08
1.1629e-08
1.18128e-08
1.15115e-08
1.12371e-08
1.12392e-08
1.11827e-08
1.11569e-08
1.11501e-08
1.10833e-08
1.10364e-08
1.10214e-08
1.09877e-08
1.0966e-08
1.09537e-08
1.09451e-08
1.09315e-08
1.09148e-08
1.09022e-08
1.08846e-08
1.08687e-08
1.08483e-08
1.08283e-08
1.08154e-08
1.07999e-08
1.07801e-08
1.07596e-08
1.07459e-08
1.07386e-08
1.07314e-08
1.07197e-08
1.07027e-08
1.06866e-08
1.0679e-08
1.06778e-08
1.06771e-08
1.06714e-08
1.06637e-08
1.06608e-08
1.06635e-08
1.06663e-08
1.06656e-08
1.0666e-08
1.06713e-08
1.06783e-08
1.06824e-08
1.06838e-08
1.06872e-08
1.06935e-08
1.0699e-08
1.06999e-08
1.06988e-08
1.07017e-08
1.0708e-08
1.07121e-08
1.07119e-08
1.07104e-08
1.07106e-08
1.07126e-08
1.07151e-08
1.07165e-08
1.07155e-08
1.07144e-08
1.07152e-08
1.07159e-08
1.07127e-08
1.07064e-08
1.07033e-08
1.0705e-08
1.07068e-08
1.0705e-08
1.07021e-08
1.07005e-08
1.06989e-08
1.06957e-08
1.06915e-08
1.06891e-08
1.06885e-08
1.06856e-08
1.06784e-08
1.06715e-08
1.06693e-08
1.06712e-08
1.06709e-08
1.06651e-08
1.0656e-08
1.06486e-08
1.0647e-08
1.06473e-08
1.06437e-08
1.06362e-08
1.06308e-08
1.06283e-08
1.06255e-08
1.06203e-08
1.06115e-08
1.0604e-08
1.06005e-08
1.05994e-08
1.05992e-08
1.05945e-08
1.05848e-08
1.05757e-08
1.05713e-08
1.05704e-08
1.05687e-08
1.05653e-08
1.05608e-08
1.05542e-08
1.05473e-08
1.05444e-08
1.05443e-08
1.05433e-08
1.05398e-08
1.05335e-08
1.05283e-08
1.05277e-08
1.05304e-08
1.05321e-08
1.05319e-08
1.05315e-08
1.05318e-08
1.05325e-08
1.05341e-08
1.05363e-08
1.05369e-08
1.05414e-08
1.0549e-08
1.05523e-08
1.0552e-08
1.05539e-08
1.05586e-08
1.0564e-08
1.05663e-08
1.05689e-08
1.05722e-08
1.05737e-08
1.0574e-08
1.0576e-08
1.05789e-08
1.05796e-08
1.05765e-08
1.05739e-08
1.05739e-08
1.05754e-08
1.0576e-08
1.05747e-08
1.05696e-08
1.05615e-08
1.05554e-08
1.05527e-08
1.05516e-08
1.05498e-08
1.05449e-08
1.05385e-08
1.05314e-08
1.05252e-08
1.052e-08
1.05145e-08
1.05073e-08
1.05021e-08
1.04996e-08
1.04935e-08
1.04846e-08
1.04758e-08
1.04688e-08
1.04635e-08
1.04592e-08
1.04535e-08
1.04467e-08
1.04385e-08
1.043e-08
1.04239e-08
1.04194e-08
1.04135e-08
1.04067e-08
1.04e-08
1.03931e-08
1.03867e-08
1.03806e-08
1.03745e-08
1.03681e-08
1.03611e-08
1.03549e-08
1.03488e-08
1.03425e-08
1.03355e-08
1.03279e-08
1.03226e-08
1.03168e-08
1.03104e-08
1.03034e-08
1.02965e-08
1.02901e-08
1.02839e-08
1.02776e-08
1.02709e-08
1.02644e-08
1.02584e-08
1.02523e-08
1.0246e-08
1.02392e-08
1.02327e-08
1.02275e-08
1.02216e-08
1.02151e-08
1.02083e-08
1.02028e-08
1.01976e-08
1.0192e-08
1.01864e-08
1.01806e-08
1.01748e-08
1.01694e-08
1.01641e-08
1.0159e-08
1.01542e-08
1.01494e-08
1.01445e-08
1.01396e-08
1.01353e-08
1.01314e-08
1.01273e-08
1.01232e-08
1.0119e-08
1.0115e-08
1.01115e-08
1.01082e-08
1.01049e-08
1.01013e-08
1.0098e-08
1.00953e-08
1.00925e-08
1.00896e-08
1.00868e-08
1.00841e-08
1.00817e-08
1.00793e-08
1.00769e-08
1.00746e-08
1.00725e-08
1.00703e-08
1.00682e-08
1.00662e-08
1.00641e-08
1.00622e-08
1.00605e-08
1.00587e-08
1.00569e-08
1.00552e-08
1.00534e-08
1.00517e-08
1.00501e-08
1.00486e-08
1.0047e-08
1.00454e-08
1.00439e-08
1.00425e-08
1.0041e-08
1.00396e-08
1.00381e-08
1.00367e-08
1.00353e-08
1.0034e-08
1.00327e-08
1.00313e-08
1.003e-08
1.00287e-08
1.00274e-08
1.00262e-08
1.0025e-08
1.00236e-08
1.00224e-08
1.00212e-08
1.002e-08
1.00188e-08
1.00176e-08
1.00165e-08
1.00154e-08
1.00142e-08
1.00131e-08
1.0012e-08
1.0011e-08
1.00099e-08
1.00089e-08
1.00078e-08
1.00069e-08
1.00057e-08
1.00048e-08
1.00038e-08
1.00028e-08
1.00019e-08
1.00009e-08
1.00001e-08
9.9992e-09
9.99807e-09
9.99746e-09
9.99623e-09
9.99671e-09
9.99626e-09
9.99809e-09
9.9966e-09
1.00044e-08
1.00009e-08
1.00053e-08
1.00112e-08
1.00438e-08
1.00414e-08
1.00132e-08
1.00114e-08
1.00179e-08
1.0011e-08
9.99754e-09
9.99506e-09
9.98979e-09
9.98672e-09
9.9853e-09
9.98459e-09
9.98495e-09
9.98495e-09
9.99061e-09
9.98838e-09
9.98977e-09
9.99158e-09
1.00043e-08
1.00033e-08
9.99245e-09
9.99237e-09
9.99416e-09
9.99055e-09
9.98213e-09
9.98248e-09
9.98161e-09
9.98079e-09
9.97683e-09
9.98018e-09
9.97534e-09
9.97727e-09
9.98344e-09
1.00163e-08
1.00149e-08
1.00501e-08
1.00509e-08
1.00962e-08
1.01032e-08
1.01333e-08
1.016e-08
1.01593e-08
1.01521e-08
1.02064e-08
1.01571e-08
1.01029e-08
1.00739e-08
1.00514e-08
1.00358e-08
1.00241e-08
1.00149e-08
1.00076e-08
1.00018e-08
9.99712e-09
9.99342e-09
9.99039e-09
9.98788e-09
9.98584e-09
9.98424e-09
9.98298e-09
9.98197e-09
9.98114e-09
9.98043e-09
9.97982e-09
9.97931e-09
9.97888e-09
9.97854e-09
9.9783e-09
9.97812e-09
9.97808e-09
9.97814e-09
9.97822e-09
9.97833e-09
9.97847e-09
9.97862e-09
9.97875e-09
9.97886e-09
9.97899e-09
9.97913e-09
9.97928e-09
9.97939e-09
9.97941e-09
9.97937e-09
9.97927e-09
9.9791e-09
9.97888e-09
9.97867e-09
9.97851e-09
9.97842e-09
9.97838e-09
9.97837e-09
9.97839e-09
9.97843e-09
9.97853e-09
9.97861e-09
9.97858e-09
9.97837e-09
9.97806e-09
9.97781e-09
9.97776e-09
9.97777e-09
9.97752e-09
9.97697e-09
9.97632e-09
9.97596e-09
9.97631e-09
9.97673e-09
9.97645e-09
9.97568e-09
9.97523e-09
9.97569e-09
9.97639e-09
9.97611e-09
9.97549e-09
9.9756e-09
9.97617e-09
9.97569e-09
9.97474e-09
9.9742e-09
9.97675e-09
9.99876e-09
1.00179e-08
1.00588e-08
1.0014e-08
1.03364e-08
1.12738e-08
1.67065e-08
2.11523e-08
2.13772e-08
1.99327e-08
1.84948e-08
1.74041e-08
1.66141e-08
1.59664e-08
1.54057e-08
1.49286e-08
1.461e-08
1.44741e-08
1.45253e-08
1.45623e-08
1.43751e-08
1.39517e-08
1.35956e-08
1.34741e-08
1.35324e-08
1.3631e-08
1.36722e-08
1.36831e-08
1.36705e-08
1.35245e-08
1.32492e-08
1.29828e-08
1.28567e-08
1.28133e-08
1.27365e-08
1.25386e-08
1.23792e-08
1.23584e-08
1.24589e-08
1.25252e-08
1.24039e-08
1.20882e-08
1.17922e-08
1.16673e-08
1.17066e-08
1.17895e-08
1.17857e-08
1.16645e-08
1.1476e-08
1.13154e-08
1.12281e-08
1.11994e-08
1.1181e-08
1.11348e-08
1.10888e-08
1.10987e-08
1.11697e-08
1.1241e-08
1.12675e-08
1.12513e-08
1.12405e-08
1.12937e-08
1.14176e-08
1.15574e-08
1.16761e-08
1.17891e-08
1.19542e-08
1.22255e-08
1.25373e-08
1.28536e-08
1.31661e-08
1.3434e-08
1.36231e-08
1.37242e-08
1.37438e-08
1.37029e-08
1.36204e-08
1.35128e-08
1.33968e-08
1.32839e-08
1.3174e-08
1.3056e-08
1.29247e-08
1.27813e-08
1.26258e-08
1.24457e-08
1.22289e-08
1.19557e-08
1.16274e-08
1.12202e-08
1.08042e-08
1.04714e-08
1.028e-08
1.02214e-08
1.0257e-08
1.03369e-08
1.04448e-08
1.05764e-08
1.07009e-08
1.07736e-08
1.07688e-08
1.06851e-08
1.05611e-08
1.04364e-08
1.03329e-08
1.02586e-08
1.02102e-08
1.01785e-08
1.0181e-08
1.01495e-08
1.01222e-08
1.01297e-08
1.01345e-08
1.01052e-08
1.00851e-08
1.00889e-08
1.00892e-08
1.00947e-08
1.01032e-08
1.01109e-08
1.01101e-08
1.01016e-08
1.00903e-08
1.00809e-08
1.00781e-08
1.00911e-08
1.01071e-08
1.01e-08
1.00896e-08
1.00924e-08
1.00821e-08
1.00742e-08
1.00735e-08
1.007e-08
1.00682e-08
1.00676e-08
1.00654e-08
1.00639e-08
1.00634e-08
1.0063e-08
1.00626e-08
1.00619e-08
1.00614e-08
1.00607e-08
1.00601e-08
1.00593e-08
1.00586e-08
1.00582e-08
1.00576e-08
1.00567e-08
1.0056e-08
1.00557e-08
1.00556e-08
1.00554e-08
1.00549e-08
1.00542e-08
1.00536e-08
1.00534e-08
1.00535e-08
1.00535e-08
1.00532e-08
1.00528e-08
1.00527e-08
1.00529e-08
1.00531e-08
1.00529e-08
1.00528e-08
1.0053e-08
1.00533e-08
1.00534e-08
1.00534e-08
1.00534e-08
1.00537e-08
1.00539e-08
1.00538e-08
1.00536e-08
1.00536e-08
1.00539e-08
1.00541e-08
1.00539e-08
1.00537e-08
1.00537e-08
1.00537e-08
1.00537e-08
1.00537e-08
1.00536e-08
1.00536e-08
1.00536e-08
1.00535e-08
1.00532e-08
1.00527e-08
1.00525e-08
1.00525e-08
1.00525e-08
1.00524e-08
1.00521e-08
1.0052e-08
1.00517e-08
1.00514e-08
1.0051e-08
1.00507e-08
1.00506e-08
1.00504e-08
1.00498e-08
1.00493e-08
1.0049e-08
1.00491e-08
1.00489e-08
1.00485e-08
1.00478e-08
1.00473e-08
1.00472e-08
1.00471e-08
1.00468e-08
1.00463e-08
1.00459e-08
1.00457e-08
1.00454e-08
1.00451e-08
1.00445e-08
1.0044e-08
1.00438e-08
1.00436e-08
1.00436e-08
1.00433e-08
1.00427e-08
1.00422e-08
1.00419e-08
1.00418e-08
1.00417e-08
1.00415e-08
1.00413e-08
1.0041e-08
1.00406e-08
1.00405e-08
1.00405e-08
1.00405e-08
1.00403e-08
1.004e-08
1.00398e-08
1.00397e-08
1.00398e-08
1.004e-08
1.004e-08
1.004e-08
1.004e-08
1.00399e-08
1.004e-08
1.004e-08
1.004e-08
1.00402e-08
1.00405e-08
1.00407e-08
1.00406e-08
1.00406e-08
1.00408e-08
1.0041e-08
1.00411e-08
1.00412e-08
1.00413e-08
1.00413e-08
1.00413e-08
1.00414e-08
1.00416e-08
1.00415e-08
1.00412e-08
1.00411e-08
1.00411e-08
1.00412e-08
1.00413e-08
1.00412e-08
1.00409e-08
1.00405e-08
1.00402e-08
1.00401e-08
1.00401e-08
1.004e-08
1.00398e-08
1.00395e-08
1.00391e-08
1.00389e-08
1.00386e-08
1.00384e-08
1.0038e-08
1.00378e-08
1.00377e-08
1.00375e-08
1.0037e-08
1.00366e-08
1.00363e-08
1.00361e-08
1.00359e-08
1.00356e-08
1.00353e-08
1.00349e-08
1.00345e-08
1.00343e-08
1.0034e-08
1.00338e-08
1.00334e-08
1.00331e-08
1.00328e-08
1.00325e-08
1.00322e-08
1.00319e-08
1.00316e-08
1.00313e-08
1.0031e-08
1.00307e-08
1.00304e-08
1.00301e-08
1.00297e-08
1.00295e-08
1.00292e-08
1.00289e-08
1.00286e-08
1.00282e-08
1.00279e-08
1.00276e-08
1.00273e-08
1.0027e-08
1.00267e-08
1.00264e-08
1.00262e-08
1.00259e-08
1.00256e-08
1.00253e-08
1.0025e-08
1.00248e-08
1.00245e-08
1.00242e-08
1.0024e-08
1.00237e-08
1.00235e-08
1.00233e-08
1.00231e-08
1.00228e-08
1.00226e-08
1.00224e-08
1.00222e-08
1.0022e-08
1.00218e-08
1.00217e-08
1.00215e-08
1.00213e-08
1.00212e-08
1.0021e-08
1.00209e-08
1.00207e-08
1.00206e-08
1.00204e-08
1.00203e-08
1.00202e-08
1.002e-08
1.00199e-08
1.00198e-08
1.00197e-08
1.00196e-08
1.00195e-08
1.00194e-08
1.00193e-08
1.00192e-08
1.0019e-08
1.00189e-08
1.00189e-08
1.00188e-08
1.00187e-08
1.00186e-08
1.00185e-08
1.00184e-08
1.00184e-08
1.00183e-08
1.00182e-08
1.00181e-08
1.00181e-08
1.0018e-08
1.00179e-08
1.00178e-08
1.00178e-08
1.00177e-08
1.00176e-08
1.00176e-08
1.00175e-08
1.00174e-08
1.00173e-08
1.00173e-08
1.00172e-08
1.00171e-08
1.00171e-08
1.0017e-08
1.00169e-08
1.00169e-08
1.00168e-08
1.00167e-08
1.00166e-08
1.00166e-08
1.00165e-08
1.00164e-08
1.00164e-08
1.00163e-08
1.00162e-08
1.00161e-08
1.00161e-08
1.0016e-08
1.00159e-08
1.00158e-08
1.00158e-08
1.00157e-08
1.00156e-08
1.00155e-08
1.00154e-08
1.00153e-08
1.00153e-08
1.00152e-08
1.00151e-08
1.00152e-08
1.00151e-08
1.00151e-08
1.00149e-08
1.00154e-08
1.00151e-08
1.00152e-08
1.00155e-08
1.00158e-08
1.00157e-08
1.00155e-08
1.00151e-08
1.00138e-08
1.00141e-08
1.00154e-08
1.00156e-08
1.00157e-08
1.00155e-08
1.00156e-08
1.00155e-08
1.00151e-08
1.00147e-08
1.00143e-08
1.00142e-08
1.00146e-08
1.00141e-08
1.00144e-08
1.00143e-08
1.00142e-08
1.00138e-08
1.00133e-08
1.00134e-08
1.00141e-08
1.00141e-08
1.0014e-08
1.0014e-08
1.0014e-08
1.00139e-08
1.00138e-08
1.00136e-08
1.00133e-08
1.00132e-08
1.00134e-08
1.0013e-08
1.00131e-08
1.00142e-08
1.00138e-08
1.00138e-08
1.00138e-08
1.00164e-08
1.00169e-08
1.0019e-08
1.0019e-08
1.00181e-08
1.00223e-08
1.00241e-08
1.00229e-08
1.00253e-08
1.00224e-08
1.00173e-08
1.00144e-08
1.00129e-08
1.00117e-08
1.00108e-08
1.00101e-08
1.00095e-08
1.00089e-08
1.00085e-08
1.0008e-08
1.00077e-08
1.00073e-08
1.00071e-08
1.0007e-08
1.0007e-08
1.00072e-08
1.00074e-08
1.00076e-08
1.00077e-08
1.00078e-08
1.0008e-08
1.00081e-08
1.00082e-08
1.00084e-08
1.00085e-08
1.00087e-08
1.00088e-08
1.00089e-08
1.0009e-08
1.00091e-08
1.00091e-08
1.0009e-08
1.0009e-08
1.00091e-08
1.00092e-08
1.00093e-08
1.00095e-08
1.00096e-08
1.00097e-08
1.00097e-08
1.00097e-08
1.00097e-08
1.00096e-08
1.00097e-08
1.00097e-08
1.00097e-08
1.00097e-08
1.00097e-08
1.00097e-08
1.00097e-08
1.00099e-08
1.00099e-08
1.001e-08
1.00099e-08
1.00098e-08
1.00096e-08
1.00094e-08
1.00092e-08
1.00092e-08
1.00093e-08
1.00095e-08
1.00097e-08
1.00095e-08
1.00091e-08
1.00092e-08
1.00095e-08
1.00098e-08
1.00095e-08
1.0009e-08
1.0009e-08
1.00092e-08
1.00093e-08
1.00088e-08
1.00089e-08
1.0009e-08
1.00087e-08
1.00103e-08
1.00105e-08
1.00127e-08
1.00085e-08
1.02436e-08
1.10546e-08
1.29569e-08
1.40502e-08
1.34396e-08
1.28685e-08
1.23926e-08
1.20461e-08
1.17957e-08
1.15927e-08
1.14239e-08
1.12862e-08
1.11936e-08
1.11461e-08
1.11376e-08
1.11223e-08
1.10621e-08
1.0962e-08
1.08847e-08
1.08537e-08
1.08508e-08
1.08497e-08
1.08412e-08
1.08399e-08
1.08461e-08
1.08289e-08
1.07672e-08
1.06847e-08
1.06236e-08
1.05934e-08
1.05763e-08
1.05481e-08
1.05168e-08
1.0498e-08
1.04982e-08
1.04999e-08
1.04778e-08
1.04263e-08
1.03746e-08
1.03464e-08
1.03441e-08
1.03508e-08
1.03475e-08
1.03266e-08
1.02947e-08
1.02653e-08
1.02455e-08
1.02343e-08
1.02267e-08
1.02179e-08
1.02107e-08
1.02111e-08
1.02196e-08
1.02288e-08
1.02334e-08
1.02359e-08
1.02438e-08
1.02625e-08
1.02907e-08
1.03197e-08
1.03464e-08
1.0376e-08
1.04204e-08
1.04883e-08
1.05747e-08
1.06701e-08
1.07727e-08
1.08779e-08
1.09763e-08
1.10551e-08
1.11066e-08
1.11299e-08
1.11296e-08
1.11127e-08
1.10875e-08
1.10577e-08
1.10239e-08
1.09864e-08
1.09488e-08
1.09149e-08
1.08864e-08
1.08637e-08
1.08458e-08
1.08306e-08
1.08133e-08
1.0782e-08
1.07235e-08
1.06393e-08
1.05269e-08
1.03851e-08
1.02374e-08
1.01477e-08
1.01192e-08
1.01085e-08
1.01098e-08
1.01147e-08
1.01175e-08
1.01162e-08
1.01085e-08
1.00968e-08
1.00843e-08
1.00744e-08
1.00684e-08
1.00659e-08
1.0066e-08
1.00676e-08
1.00686e-08
1.00683e-08
1.00663e-08
1.00586e-08
1.00513e-08
1.00472e-08
1.00431e-08
1.00403e-08
1.00388e-08
1.00378e-08
1.00374e-08
1.00375e-08
1.00377e-08
1.00378e-08
1.00379e-08
1.00382e-08
1.00388e-08
1.00398e-08
1.00409e-08
1.0041e-08
1.00395e-08
1.00377e-08
1.00368e-08
1.00356e-08
1.00346e-08
1.0034e-08
1.00334e-08
1.0033e-08
1.00328e-08
1.00327e-08
1.00326e-08
1.00325e-08
1.00324e-08
1.00324e-08
1.00323e-08
1.00322e-08
1.00321e-08
1.0032e-08
1.00319e-08
1.00318e-08
1.00317e-08
1.00316e-08
1.00315e-08
1.00315e-08
1.00314e-08
1.00313e-08
1.00313e-08
1.00312e-08
1.00312e-08
1.00312e-08
1.00311e-08
1.00311e-08
1.0031e-08
1.0031e-08
1.00309e-08
1.00309e-08
1.00308e-08
1.00308e-08
1.00307e-08
1.00307e-08
1.00306e-08
1.00306e-08
1.00305e-08
1.00305e-08
1.00304e-08
1.00303e-08
1.00303e-08
1.00302e-08
1.00302e-08
1.00301e-08
1.003e-08
1.003e-08
1.00299e-08
1.00299e-08
1.00298e-08
1.00298e-08
1.00297e-08
1.00296e-08
1.00296e-08
1.00295e-08
1.00294e-08
1.00294e-08
1.00293e-08
1.00292e-08
1.00292e-08
1.00291e-08
1.00291e-08
1.0029e-08
1.00289e-08
1.00288e-08
1.00287e-08
1.00287e-08
1.00286e-08
1.00285e-08
1.00284e-08
1.00283e-08
1.00282e-08
1.00282e-08
1.00281e-08
1.0028e-08
1.00279e-08
1.00278e-08
1.00277e-08
1.00276e-08
1.00276e-08
1.00275e-08
1.00274e-08
1.00273e-08
1.00272e-08
1.00271e-08
1.0027e-08
1.00269e-08
1.00269e-08
1.00268e-08
1.00267e-08
1.00266e-08
1.00266e-08
1.00265e-08
1.00264e-08
1.00263e-08
1.00263e-08
1.00262e-08
1.00261e-08
1.0026e-08
1.0026e-08
1.00259e-08
1.00258e-08
1.00258e-08
1.00257e-08
1.00256e-08
1.00255e-08
1.00254e-08
1.00254e-08
1.00253e-08
1.00253e-08
1.00252e-08
1.00251e-08
1.0025e-08
1.0025e-08
1.00249e-08
1.00247e-08
1.00247e-08
1.00247e-08
1.00246e-08
1.00245e-08
1.00244e-08
1.00244e-08
1.00243e-08
1.00242e-08
1.00242e-08
1.00241e-08
1.00241e-08
1.0024e-08
1.0024e-08
1.0024e-08
1.00239e-08
1.00238e-08
1.00238e-08
1.00237e-08
1.00237e-08
1.00236e-08
1.00236e-08
1.00235e-08
1.00234e-08
1.00234e-08
1.00233e-08
1.00233e-08
1.00232e-08
1.00231e-08
1.00231e-08
1.0023e-08
1.0023e-08
1.00229e-08
1.00228e-08
1.00228e-08
1.00227e-08
1.00226e-08
1.00226e-08
1.00225e-08
1.00224e-08
1.00224e-08
1.00223e-08
1.00222e-08
1.00222e-08
1.00221e-08
1.0022e-08
1.0022e-08
1.00219e-08
1.00218e-08
1.00218e-08
1.00217e-08
1.00216e-08
1.00215e-08
1.00215e-08
1.00214e-08
1.00213e-08
1.00213e-08
1.00212e-08
1.00211e-08
1.0021e-08
1.0021e-08
1.00209e-08
1.00208e-08
1.00207e-08
1.00207e-08
1.00206e-08
1.00205e-08
1.00204e-08
1.00204e-08
1.00203e-08
1.00202e-08
1.00202e-08
1.00201e-08
1.002e-08
1.002e-08
1.00199e-08
1.00198e-08
1.00198e-08
1.00197e-08
1.00196e-08
1.00196e-08
1.00195e-08
1.00194e-08
1.00194e-08
1.00193e-08
1.00193e-08
1.00192e-08
1.00191e-08
1.00191e-08
1.0019e-08
1.0019e-08
1.00189e-08
1.00188e-08
1.00188e-08
1.00187e-08
1.00187e-08
1.00186e-08
1.00185e-08
1.00185e-08
1.00184e-08
1.00183e-08
1.00182e-08
1.00182e-08
1.00181e-08
1.0018e-08
1.00179e-08
1.00179e-08
1.00178e-08
1.00177e-08
1.00177e-08
1.00176e-08
1.00175e-08
1.00174e-08
1.00174e-08
1.00173e-08
1.00172e-08
1.00172e-08
1.00171e-08
1.0017e-08
1.0017e-08
1.00169e-08
1.00168e-08
1.00168e-08
1.00167e-08
1.00167e-08
1.00166e-08
1.00165e-08
1.00165e-08
1.00164e-08
1.00164e-08
1.00163e-08
1.00163e-08
1.00162e-08
1.00161e-08
1.00161e-08
1.0016e-08
1.00159e-08
1.00159e-08
1.00158e-08
1.00158e-08
1.00157e-08
1.00157e-08
1.00156e-08
1.00155e-08
1.00155e-08
1.00154e-08
1.00154e-08
1.00153e-08
1.00153e-08
1.00152e-08
1.00152e-08
1.00151e-08
1.0015e-08
1.0015e-08
1.00149e-08
1.00148e-08
1.00148e-08
1.00147e-08
1.00146e-08
1.00146e-08
1.00145e-08
1.00144e-08
1.00145e-08
1.00143e-08
1.00144e-08
1.00142e-08
1.00147e-08
1.00144e-08
1.00147e-08
1.00148e-08
1.00148e-08
1.00147e-08
1.00146e-08
1.00143e-08
1.00133e-08
1.00135e-08
1.00144e-08
1.00144e-08
1.00144e-08
1.00144e-08
1.00144e-08
1.00143e-08
1.00138e-08
1.00133e-08
1.00141e-08
1.0014e-08
1.00139e-08
1.00138e-08
1.00137e-08
1.00137e-08
1.00135e-08
1.00134e-08
1.0013e-08
1.00131e-08
1.00133e-08
1.00133e-08
1.00133e-08
1.00132e-08
1.00132e-08
1.00131e-08
1.00131e-08
1.00129e-08
1.00126e-08
1.00126e-08
1.00131e-08
1.00127e-08
1.00136e-08
1.0013e-08
1.00118e-08
1.00127e-08
1.00127e-08
1.00153e-08
1.00159e-08
1.00181e-08
1.00172e-08
1.00151e-08
1.00155e-08
1.00153e-08
1.0015e-08
1.0015e-08
1.00147e-08
1.00141e-08
1.00138e-08
1.00132e-08
1.00126e-08
1.00122e-08
1.00117e-08
1.00113e-08
1.00108e-08
1.00105e-08
1.00101e-08
1.00098e-08
1.00095e-08
1.00092e-08
1.0009e-08
1.00087e-08
1.00086e-08
1.00085e-08
1.00085e-08
1.00085e-08
1.00086e-08
1.00086e-08
1.00086e-08
1.00086e-08
1.00086e-08
1.00086e-08
1.00087e-08
1.00088e-08
1.00089e-08
1.00091e-08
1.00092e-08
1.00092e-08
1.00092e-08
1.00092e-08
1.00091e-08
1.0009e-08
1.0009e-08
1.0009e-08
1.00091e-08
1.00092e-08
1.00093e-08
1.00094e-08
1.00095e-08
1.00095e-08
1.00094e-08
1.00094e-08
1.00094e-08
1.00095e-08
1.00095e-08
1.00095e-08
1.00094e-08
1.00093e-08
1.00093e-08
1.00094e-08
1.00096e-08
1.00096e-08
1.00096e-08
1.00095e-08
1.00093e-08
1.00091e-08
1.0009e-08
1.00089e-08
1.0009e-08
1.00091e-08
1.00093e-08
1.00092e-08
1.0009e-08
1.00089e-08
1.00091e-08
1.00095e-08
1.00094e-08
1.00088e-08
1.00087e-08
1.00088e-08
1.00089e-08
1.00087e-08
1.00087e-08
1.00088e-08
1.0009e-08
1.00088e-08
1.00097e-08
1.00099e-08
1.00121e-08
1.00082e-08
1.01849e-08
1.05142e-08
1.08907e-08
1.09879e-08
1.08741e-08
1.07554e-08
1.06556e-08
1.05776e-08
1.05171e-08
1.04655e-08
1.04213e-08
1.03849e-08
1.03593e-08
1.03439e-08
1.03365e-08
1.03269e-08
1.03097e-08
1.02863e-08
1.02678e-08
1.02579e-08
1.02528e-08
1.02483e-08
1.02437e-08
1.02418e-08
1.02419e-08
1.02379e-08
1.02236e-08
1.02027e-08
1.01851e-08
1.01749e-08
1.01693e-08
1.01636e-08
1.01568e-08
1.01508e-08
1.01472e-08
1.01445e-08
1.01392e-08
1.01305e-08
1.01217e-08
1.01156e-08
1.01129e-08
1.01114e-08
1.0109e-08
1.01051e-08
1.01e-08
1.00947e-08
1.00902e-08
1.00867e-08
1.00841e-08
1.00821e-08
1.00808e-08
1.00805e-08
1.00812e-08
1.00822e-08
1.00829e-08
1.00839e-08
1.00861e-08
1.009e-08
1.00952e-08
1.01008e-08
1.01065e-08
1.01136e-08
1.01241e-08
1.01392e-08
1.01582e-08
1.01806e-08
1.0208e-08
1.02384e-08
1.02696e-08
1.02985e-08
1.0323e-08
1.03416e-08
1.03548e-08
1.03637e-08
1.03693e-08
1.03722e-08
1.0373e-08
1.03729e-08
1.03741e-08
1.03787e-08
1.03874e-08
1.04004e-08
1.04166e-08
1.04335e-08
1.04497e-08
1.04641e-08
1.04754e-08
1.04819e-08
1.04802e-08
1.04657e-08
1.04335e-08
1.0381e-08
1.03029e-08
1.0214e-08
1.01423e-08
1.01059e-08
1.00823e-08
1.00682e-08
1.00602e-08
1.00535e-08
1.00491e-08
1.00466e-08
1.00453e-08
1.00453e-08
1.00466e-08
1.00489e-08
1.0052e-08
1.00557e-08
1.00593e-08
1.00622e-08
1.0063e-08
1.00605e-08
1.00547e-08
1.00487e-08
1.00443e-08
1.00409e-08
1.00384e-08
1.00365e-08
1.00353e-08
1.00348e-08
1.00347e-08
1.00349e-08
1.00352e-08
1.00357e-08
1.00365e-08
1.00374e-08
1.00384e-08
1.0039e-08
1.00388e-08
1.00375e-08
1.00361e-08
1.00351e-08
1.00341e-08
1.00334e-08
1.00328e-08
1.00324e-08
1.00321e-08
1.00318e-08
1.00316e-08
1.00315e-08
1.00314e-08
1.00313e-08
1.00312e-08
1.00311e-08
1.0031e-08
1.0031e-08
1.00309e-08
1.00308e-08
1.00308e-08
1.00307e-08
1.00307e-08
1.00307e-08
1.00306e-08
1.00306e-08
1.00306e-08
1.00306e-08
1.00306e-08
1.00306e-08
1.00305e-08
1.00305e-08
1.00305e-08
1.00304e-08
1.00304e-08
1.00303e-08
1.00303e-08
1.00302e-08
1.00302e-08
1.00301e-08
1.003e-08
1.00299e-08
1.00298e-08
1.00298e-08
1.00297e-08
1.00296e-08
1.00295e-08
1.00294e-08
1.00294e-08
1.00293e-08
1.00292e-08
1.00292e-08
1.00291e-08
1.0029e-08
1.0029e-08
1.00289e-08
1.00288e-08
1.00288e-08
1.00287e-08
1.00287e-08
1.00286e-08
1.00286e-08
1.00285e-08
1.00285e-08
1.00284e-08
1.00284e-08
1.00283e-08
1.00283e-08
1.00282e-08
1.00281e-08
1.0028e-08
1.0028e-08
1.00279e-08
1.00278e-08
1.00277e-08
1.00277e-08
1.00276e-08
1.00275e-08
1.00274e-08
1.00273e-08
1.00272e-08
1.00271e-08
1.0027e-08
1.00269e-08
1.00269e-08
1.00268e-08
1.00267e-08
1.00266e-08
1.00265e-08
1.00264e-08
1.00263e-08
1.00263e-08
1.00262e-08
1.00261e-08
1.0026e-08
1.0026e-08
1.00259e-08
1.00258e-08
1.00257e-08
1.00257e-08
1.00256e-08
1.00255e-08
1.00255e-08
1.00254e-08
1.00253e-08
1.00253e-08
1.00252e-08
1.00252e-08
1.00251e-08
1.00251e-08
1.0025e-08
1.00249e-08
1.00249e-08
1.00248e-08
1.00248e-08
1.00247e-08
1.00246e-08
1.00245e-08
1.00244e-08
1.00244e-08
1.00243e-08
1.00242e-08
1.00241e-08
1.0024e-08