/*--------------------------------*- C++ -*----------------------------------*\
| =========                 |                                                 |
| \\      /  F ield         | OpenFOAM: The Open Source CFD Toolbox           |
|  \\    /   O peration     | Version:  v2006                                 |
|   \\  /    A nd           | Website:  www.openfoam.com                      |
|    \\/     M anipulation  |                                                 |
\*---------------------------------------------------------------------------*/
FoamFile
{
    version     2.0;
    format      ascii;
    class       volScalarField;
    location    "4.2";
    object      nut;
}
// * * * * * * * * * * * * * * * * * * * * * * * * * * * * * * * * * * * * * //

dimensions      [0 2 -1 0 0 0 0];


internalField   nonuniform List<scalar> 
33000
(
3.24194e-10
4.74566e-10
8.856e-10
1.57045e-09
2.47385e-09
3.76437e-09
4.71247e-09
5.56948e-09
6.45782e-09
7.40323e-09
8.4185e-09
9.50695e-09
1.06282e-08
1.17696e-08
1.29852e-08
1.47328e-08
1.74486e-08
2.1564e-08
2.59614e-08
2.99923e-08
3.33611e-08
3.58034e-08
3.69068e-08
3.54819e-08
3.19271e-08
2.85255e-08
2.59777e-08
2.35763e-08
2.06763e-08
1.76662e-08
1.53393e-08
1.41044e-08
1.34335e-08
1.27433e-08
1.17125e-08
1.04969e-08
9.49933e-09
8.89924e-09
8.62409e-09
8.39834e-09
8.01626e-09
7.50655e-09
7.02493e-09
6.63649e-09
6.35997e-09
6.16199e-09
5.96887e-09
5.75647e-09
5.53937e-09
5.33461e-09
5.18377e-09
5.08494e-09
4.96196e-09
4.7966e-09
4.6063e-09
4.43352e-09
4.2948e-09
4.18544e-09
4.06058e-09
3.87992e-09
3.68317e-09
3.4987e-09
3.33203e-09
3.19695e-09
3.08493e-09
2.95865e-09
2.82988e-09
2.71464e-09
2.63331e-09
2.60238e-09
2.63398e-09
2.75333e-09
3.00697e-09
3.42332e-09
3.97163e-09
4.49045e-09
4.73507e-09
4.89619e-09
5.32208e-09
7.44045e-09
7.77353e-09
7.18302e-09
7.52885e-09
7.46617e-09
7.69863e-09
7.47736e-09
7.4155e-09
7.27323e-09
6.97373e-09
6.72073e-09
6.68035e-09
6.38843e-09
6.13292e-09
5.81111e-09
5.536e-09
5.56111e-09
5.80298e-09
6.9654e-09
9.42035e-09
1.62019e-08
1.87655e-08
1.56374e-08
1.47487e-08
1.80555e-08
2.05214e-08
2.14098e-08
2.06092e-08
1.80098e-08
1.55361e-08
1.37331e-08
1.35053e-08
1.31453e-08
1.24551e-08
1.15883e-08
1.0802e-08
1.05935e-08
1.13977e-08
1.47485e-08
1.48737e-08
1.33407e-08
1.24292e-08
1.22955e-08
1.26738e-08
1.23369e-08
1.21126e-08
1.13814e-08
1.07469e-08
1.04148e-08
1.01582e-08
9.88982e-09
9.65249e-09
9.36197e-09
9.10255e-09
8.88169e-09
8.68113e-09
8.48811e-09
8.30597e-09
8.13105e-09
7.96185e-09
7.80312e-09
7.65607e-09
7.51842e-09
7.39299e-09
7.27216e-09
7.15708e-09
7.04951e-09
6.95246e-09
6.86391e-09
6.77907e-09
6.69928e-09
6.62334e-09
6.55426e-09
6.49322e-09
6.43687e-09
6.38539e-09
6.33769e-09
6.29256e-09
6.25325e-09
6.22073e-09
6.19285e-09
6.16644e-09
6.14358e-09
6.12637e-09
6.11494e-09
6.10711e-09
6.10044e-09
6.09774e-09
6.10188e-09
6.112e-09
6.12483e-09
6.13895e-09
6.15819e-09
6.18584e-09
6.22095e-09
6.25983e-09
6.30098e-09
6.34715e-09
6.403e-09
6.46807e-09
6.53969e-09
6.61738e-09
6.70147e-09
6.79604e-09
6.90446e-09
7.02391e-09
7.14775e-09
7.27964e-09
7.43274e-09
7.61016e-09
7.79965e-09
8.00266e-09
8.22736e-09
8.47594e-09
8.7549e-09
9.06171e-09
9.39908e-09
9.78466e-09
1.02181e-08
1.06985e-08
1.12335e-08
1.18378e-08
1.25424e-08
1.33781e-08
1.43413e-08
1.54292e-08
1.66874e-08
1.81737e-08
1.99827e-08
2.22375e-08
2.50219e-08
2.84186e-08
3.26396e-08
3.80947e-08
4.53516e-08
5.31285e-08
5.33075e-08
5.35119e-08
5.37298e-08
5.3932e-08
5.41088e-08
5.3343e-08
4.67704e-08
4.12223e-08
3.67075e-08
3.30402e-08
3.00951e-08
2.775e-08
2.57842e-08
2.40686e-08
2.26e-08
2.13351e-08
2.02134e-08
1.92497e-08
1.8427e-08
1.76856e-08
1.70165e-08
1.64178e-08
1.58746e-08
1.53894e-08
1.49598e-08
1.45677e-08
1.42028e-08
1.38723e-08
1.35766e-08
1.33067e-08
1.3055e-08
1.28152e-08
1.25986e-08
1.24101e-08
1.22349e-08
1.20644e-08
1.19065e-08
1.17673e-08
1.16378e-08
1.1515e-08
1.14045e-08
1.13026e-08
1.1207e-08
1.11185e-08
1.10353e-08
1.09613e-08
1.08945e-08
1.08307e-08
1.07694e-08
1.07116e-08
1.06605e-08
1.06157e-08
1.05771e-08
1.05408e-08
1.05028e-08
1.04667e-08
1.04336e-08
1.04065e-08
1.03848e-08
1.03633e-08
1.03419e-08
1.03212e-08
1.03036e-08
1.02901e-08
1.02764e-08
1.02602e-08
1.02494e-08
1.02438e-08
1.02369e-08
1.02293e-08
1.02213e-08
1.02146e-08
1.02096e-08
1.02068e-08
1.02056e-08
1.02055e-08
1.02045e-08
1.02019e-08
1.02012e-08
1.02047e-08
1.02093e-08
1.02137e-08
1.02195e-08
1.02254e-08
1.02326e-08
1.02426e-08
1.02544e-08
1.02674e-08
1.02799e-08
1.02944e-08
1.0312e-08
1.03324e-08
1.03517e-08
1.03706e-08
1.03938e-08
1.042e-08
1.04477e-08
1.04752e-08
1.05039e-08
1.05353e-08
1.05705e-08
1.0608e-08
1.06458e-08
1.06853e-08
1.07285e-08
1.07751e-08
1.08237e-08
1.0871e-08
1.09207e-08
1.09758e-08
1.10336e-08
1.10906e-08
1.11472e-08
1.12085e-08
1.12726e-08
1.13389e-08
1.14069e-08
1.14753e-08
1.15449e-08
1.16164e-08
1.16893e-08
1.17645e-08
1.18422e-08
1.19216e-08
1.20007e-08
1.20808e-08
1.21649e-08
1.22519e-08
1.23408e-08
1.24315e-08
1.25217e-08
1.26136e-08
1.27094e-08
1.28091e-08
1.29111e-08
1.30111e-08
1.31143e-08
1.32232e-08
1.33351e-08
1.34492e-08
1.35633e-08
1.36821e-08
1.38068e-08
1.39343e-08
1.40632e-08
1.41953e-08
1.43337e-08
1.44757e-08
1.46231e-08
1.47744e-08
1.49282e-08
1.50885e-08
1.52555e-08
1.54293e-08
1.56115e-08
1.57991e-08
1.59921e-08
1.61939e-08
1.64059e-08
1.66267e-08
1.6854e-08
1.70922e-08
1.73419e-08
1.76038e-08
1.7879e-08
1.81646e-08
1.84595e-08
1.87659e-08
1.86038e-08
1.84443e-08
1.82873e-08
1.8133e-08
1.79811e-08
1.78319e-08
1.76851e-08
1.75407e-08
1.73988e-08
1.72593e-08
1.71225e-08
1.69884e-08
1.68566e-08
1.67276e-08
1.66011e-08
1.6477e-08
1.63551e-08
1.62356e-08
1.61184e-08
1.60038e-08
1.58915e-08
1.57823e-08
1.56753e-08
1.55713e-08
1.54699e-08
1.53705e-08
1.52746e-08
1.51804e-08
1.50896e-08
1.49998e-08
1.49129e-08
1.48288e-08
1.47446e-08
1.46628e-08
1.45825e-08
1.44979e-08
1.44214e-08
1.43545e-08
1.42736e-08
1.42121e-08
1.41372e-08
1.40084e-08
1.3948e-08
1.39344e-08
1.3808e-08
1.39142e-08
1.39409e-08
1.43451e-08
1.43232e-08
1.44708e-08
1.4457e-08
1.45011e-08
1.44739e-08
1.44811e-08
1.44523e-08
1.44421e-08
1.4404e-08
1.43769e-08
1.43354e-08
1.42575e-08
1.42196e-08
1.42004e-08
1.41183e-08
1.41603e-08
1.41492e-08
1.43173e-08
1.42905e-08
1.43203e-08
1.42959e-08
1.42791e-08
1.42487e-08
1.42218e-08
1.41818e-08
1.41426e-08
1.4071e-08
1.40214e-08
1.39908e-08
1.39054e-08
1.38969e-08
1.38085e-08
1.35244e-08
1.34895e-08
1.35515e-08
1.32984e-08
1.40826e-08
1.44179e-08
1.69902e-08
1.6481e-08
1.68499e-08
1.72162e-08
1.72546e-08
1.71798e-08
1.70369e-08
1.68543e-08
1.66497e-08
1.6443e-08
1.62404e-08
1.60445e-08
1.58567e-08
1.56756e-08
1.54992e-08
1.53291e-08
1.51653e-08
1.50079e-08
1.48566e-08
1.4711e-08
1.45703e-08
1.44342e-08
1.43024e-08
1.41747e-08
1.40506e-08
1.39313e-08
1.38169e-08
1.37052e-08
1.35965e-08
1.34917e-08
1.33899e-08
1.3291e-08
1.31952e-08
1.31021e-08
1.30115e-08
1.29234e-08
1.28381e-08
1.27537e-08
1.26711e-08
1.25918e-08
1.25137e-08
1.24372e-08
1.23621e-08
1.22883e-08
1.22156e-08
1.2144e-08
1.20737e-08
1.20047e-08
1.19373e-08
1.18713e-08
1.1807e-08
1.17445e-08
1.16835e-08
1.16236e-08
1.15635e-08
1.15028e-08
1.14421e-08
1.13827e-08
1.13265e-08
1.12724e-08
1.12173e-08
1.11606e-08
1.11017e-08
1.10434e-08
1.09905e-08
1.09401e-08
1.08876e-08
1.08315e-08
1.07753e-08
1.07251e-08
1.06777e-08
1.06266e-08
1.05724e-08
1.05224e-08
1.04782e-08
1.04336e-08
1.03572e-08
1.02522e-08
1.05363e-08
9.31347e-09
1.12082e-08
3.40709e-10
1.24093e-09
4.86232e-09
6.39036e-09
6.21551e-09
6.18696e-09
6.27746e-09
6.78523e-09
7.45837e-09
8.1066e-09
8.60884e-09
8.97954e-09
9.34797e-09
9.87407e-09
1.05107e-08
1.09524e-08
1.10166e-08
1.07743e-08
1.03847e-08
1.02075e-08
1.0445e-08
1.11233e-08
1.17013e-08
1.17507e-08
1.08321e-08
9.74837e-09
9.52638e-09
1.03739e-08
1.18117e-08
1.23758e-08
1.12997e-08
1.02622e-08
1.00986e-08
1.07597e-08
1.11988e-08
1.10513e-08
1.03851e-08
1.01019e-08
1.05874e-08
1.06758e-08
1.06365e-08
1.01308e-08
9.23703e-09
9.26509e-09
9.68298e-09
1.00366e-08
1.07088e-08
1.05163e-08
1.00649e-08
1.04338e-08
1.14794e-08
1.17046e-08
1.11414e-08
1.11806e-08
1.21673e-08
1.33179e-08
1.34328e-08
1.28931e-08
1.187e-08
1.21638e-08
1.41856e-08
1.5797e-08
1.81958e-08
2.12965e-08
1.98509e-08
1.82104e-08
1.64778e-08
1.51889e-08
1.41926e-08
1.25679e-08
1.1106e-08
1.01436e-08
9.64526e-09
9.27354e-09
8.95939e-09
8.72912e-09
8.62056e-09
8.83973e-09
1.05972e-08
1.16477e-08
1.13135e-08
7.76759e-09
6.87195e-09
7.61114e-09
5.90705e-09
1.01828e-08
1.72385e-08
1.83182e-08
1.93148e-08
9.58144e-08
2.31954e-08
1.34141e-08
1.03434e-08
8.57696e-09
6.78012e-09
5.33086e-09
4.1937e-09
3.24627e-09
2.89825e-09
2.35714e-09
2.18212e-09
2.49443e-09
3.92267e-09
6.20302e-09
6.58072e-09
7.39903e-09
1.07857e-08
1.15252e-08
1.05397e-08
1.66e-08
3.72815e-08
2.99964e-08
2.10458e-08
1.79814e-08
1.57345e-08
1.40189e-08
1.52178e-08
1.51782e-08
1.07609e-08
8.14313e-09
1.33e-08
3.03734e-08
2.37384e-08
2.05728e-08
1.91166e-08
1.54545e-08
1.79749e-08
2.51664e-08
2.63337e-08
2.68334e-08
2.54869e-08
2.43011e-08
2.59911e-08
2.78801e-08
2.82016e-08
2.8731e-08
2.90597e-08
2.93445e-08
2.95901e-08
3.08109e-08
3.22642e-08
3.33908e-08
3.46799e-08
3.60271e-08
3.8108e-08
4.06902e-08
4.29086e-08
4.48809e-08
4.76277e-08
5.12947e-08
5.63773e-08
6.18817e-08
6.71348e-08
7.25172e-08
7.94372e-08
9.01852e-08
1.06411e-07
1.25204e-07
1.48981e-07
1.79217e-07
2.20166e-07
2.77731e-07
3.00584e-07
2.99039e-07
2.96938e-07
2.41405e-07
1.77865e-07
1.44138e-07
1.2531e-07
1.08084e-07
9.14871e-08
7.88601e-08
7.02345e-08
6.45921e-08
5.9279e-08
5.38736e-08
4.93163e-08
4.56606e-08
4.28909e-08
4.004e-08
3.70988e-08
3.47216e-08
3.29573e-08
3.1468e-08
2.99952e-08
2.83773e-08
2.6806e-08
2.5306e-08
2.41412e-08
2.31123e-08
2.2129e-08
2.13365e-08
2.06819e-08
1.9953e-08
1.91677e-08
1.83365e-08
1.76642e-08
1.71906e-08
1.68723e-08
1.65355e-08
1.60654e-08
1.56478e-08
1.54341e-08
1.53397e-08
1.51864e-08
1.50189e-08
1.49209e-08
1.49458e-08
1.50738e-08
1.52362e-08
1.53829e-08
1.55386e-08
1.58357e-08
1.62697e-08
1.67345e-08
1.71907e-08
1.76628e-08
1.82028e-08
1.88185e-08
1.95241e-08
2.0383e-08
2.12514e-08
2.20133e-08
2.27397e-08
2.36243e-08
2.46072e-08
2.57198e-08
2.68923e-08
2.80845e-08
2.93346e-08
3.06584e-08
3.20371e-08
3.36892e-08
3.56007e-08
3.75441e-08
3.94977e-08
4.15555e-08
4.38827e-08
4.66592e-08
4.99967e-08
5.38126e-08
5.74995e-08
6.14345e-08
6.58921e-08
7.11794e-08
7.7282e-08
8.36123e-08
9.13922e-08
1.02471e-07
1.14169e-07
1.24452e-07
1.38443e-07
1.59622e-07
1.85375e-07
2.13065e-07
2.46017e-07
2.93412e-07
3.3083e-07
3.29694e-07
3.27758e-07
3.26512e-07
3.26991e-07
3.27243e-07
3.26233e-07
3.24683e-07
3.23496e-07
3.2281e-07
3.23682e-07
3.25694e-07
3.09833e-07
2.80685e-07
2.56771e-07
2.3934e-07
2.26571e-07
2.163e-07
2.05508e-07
1.97452e-07
1.92198e-07
1.87394e-07
1.82821e-07
1.77752e-07
1.70518e-07
1.66714e-07
1.65529e-07
1.63932e-07
1.61203e-07
1.58257e-07
1.55771e-07
1.53648e-07
1.52436e-07
1.51204e-07
1.50022e-07
1.48708e-07
1.46987e-07
1.4614e-07
1.45941e-07
1.44425e-07
1.42572e-07
1.42053e-07
1.42122e-07
1.41557e-07
1.40674e-07
1.39481e-07
1.38666e-07
1.38539e-07
1.38438e-07
1.37534e-07
1.37226e-07
1.36403e-07
1.35713e-07
1.35595e-07
1.35117e-07
1.3436e-07
1.34296e-07
1.34118e-07
1.33735e-07
1.33263e-07
1.3269e-07
1.32457e-07
1.32385e-07
1.32185e-07
1.3198e-07
1.3152e-07
1.30776e-07
1.30953e-07
1.3112e-07
1.30985e-07
1.30707e-07
1.30308e-07
1.30149e-07
1.30283e-07
1.30314e-07
1.30209e-07
1.30244e-07
1.30354e-07
1.30463e-07
1.30384e-07
1.30364e-07
1.30401e-07
1.30469e-07
1.30677e-07
1.30715e-07
1.30583e-07
1.30852e-07
1.31201e-07
1.31365e-07
1.31398e-07
1.31602e-07
1.31878e-07
1.32136e-07
1.32345e-07
1.32453e-07
1.32862e-07
1.3318e-07
1.33455e-07
1.33852e-07
1.34271e-07
1.34815e-07
1.35034e-07
1.35081e-07
1.3545e-07
1.36485e-07
1.37155e-07
1.374e-07
1.38043e-07
1.38444e-07
1.39003e-07
1.39975e-07
1.40623e-07
1.41307e-07
1.4222e-07
1.43113e-07
1.44038e-07
1.44734e-07
1.45638e-07
1.46569e-07
1.47658e-07
1.49015e-07
1.50016e-07
1.50925e-07
1.52106e-07
1.53401e-07
1.54696e-07
1.55781e-07
1.56857e-07
1.58643e-07
1.6013e-07
1.61512e-07
1.63123e-07
1.64798e-07
1.66479e-07
1.68187e-07
1.69735e-07
1.71459e-07
1.73686e-07
1.75889e-07
1.7786e-07
1.80189e-07
1.81942e-07
1.84706e-07
1.86753e-07
1.8981e-07
1.91678e-07
1.95042e-07
1.9666e-07
2.00841e-07
2.01883e-07
2.06379e-07
2.07412e-07
2.0781e-07
2.11276e-07
2.11984e-07
2.2124e-07
2.2314e-07
2.36747e-07
2.38076e-07
2.23807e-07
2.30463e-07
2.35334e-07
2.49391e-07
3.95469e-07
3.64559e-07
1.81817e-07
1.86146e-07
1.38506e-07
1.22972e-07
7.94643e-08
8.36087e-08
1.32775e-07
1.67579e-07
1.86754e-07
1.69951e-07
2.28209e-07
2.10294e-07
2.37657e-07
2.38766e-07
2.64861e-07
2.8376e-07
4.10562e-07
3.95249e-07
2.27605e-07
2.35378e-07
1.86832e-07
1.69578e-07
1.14568e-07
1.21427e-07
1.95621e-07
2.39479e-07
2.76302e-07
2.36522e-07
3.79645e-07
3.27611e-07
5.50476e-07
4.24346e-07
4.44698e-07
3.42362e-07
3.77087e-07
3.84005e-07
4.52935e-07
4.99815e-07
4.04358e-07
1.17598e-07
1.01223e-07
5.45411e-08
4.72342e-08
2.58706e-08
2.50538e-08
4.07443e-08
4.56731e-08
4.92337e-08
5.91049e-08
8.857e-08
1.0204e-07
1.21384e-07
1.3655e-07
1.51337e-07
1.6626e-07
1.81584e-07
1.96831e-07
2.11855e-07
2.26885e-07
2.41959e-07
2.56865e-07
2.71777e-07
2.8705e-07
3.02998e-07
3.19431e-07
3.35993e-07
3.52437e-07
3.6848e-07
3.83756e-07
3.98989e-07
4.14843e-07
4.31262e-07
4.47394e-07
4.6678e-07
4.89786e-07
5.12186e-07
5.35348e-07
5.59983e-07
5.86557e-07
6.14386e-07
6.42518e-07
6.71228e-07
7.02277e-07
7.37398e-07
7.54689e-07
7.55608e-07
7.56312e-07
7.56849e-07
7.57246e-07
7.57501e-07
7.57678e-07
7.57873e-07
7.58129e-07
7.58522e-07
7.59211e-07
7.60033e-07
7.6085e-07
7.61668e-07
7.62429e-07
7.62942e-07
7.63063e-07
7.62869e-07
7.62696e-07
7.62985e-07
7.64039e-07
7.6466e-07
7.64357e-07
7.62766e-07
7.60096e-07
7.59405e-07
7.62118e-07
7.647e-07
7.63786e-07
7.60984e-07
7.60197e-07
7.63847e-07
7.67074e-07
7.66739e-07
7.66314e-07
7.67392e-07
7.6854e-07
7.67761e-07
7.657e-07
7.45409e-07
1.98016e-07
7.24492e-08
4.91029e-08
8.51184e-08
3.76638e-10
1.728e-09
6.85043e-09
1.99382e-08
7.58464e-09
6.07917e-09
5.48039e-09
5.2704e-09
5.2345e-09
5.18083e-09
5.08178e-09
4.9742e-09
4.98098e-09
5.15218e-09
5.5526e-09
5.92371e-09
5.87332e-09
5.4125e-09
5.0077e-09
4.90807e-09
5.23259e-09
5.86823e-09
6.37566e-09
6.35471e-09
5.75791e-09
4.93935e-09
4.63587e-09
5.05174e-09
6.1592e-09
6.70163e-09
6.18881e-09
5.1737e-09
4.83111e-09
5.42013e-09
6.29422e-09
6.58777e-09
6.14705e-09
5.15859e-09
4.82703e-09
5.06586e-09
5.38077e-09
5.81675e-09
5.60178e-09
5.17669e-09
5.04802e-09
5.0223e-09
5.34364e-09
6.07564e-09
6.47148e-09
6.25697e-09
6.24711e-09
6.82447e-09
7.50185e-09
8.00177e-09
8.6485e-09
8.47659e-09
7.61491e-09
7.13454e-09
7.20173e-09
8.14958e-09
8.82976e-09
8.59064e-09
9.261e-09
9.73371e-09
1.0459e-08
1.18131e-08
1.07379e-08
9.36747e-09
8.12039e-09
7.4948e-09
7.73602e-09
8.02334e-09
7.76563e-09
7.23226e-09
6.78178e-09
6.47873e-09
5.8933e-09
5.25515e-09
4.79562e-09
4.26835e-09
3.99621e-09
4.51896e-09
5.10713e-09
4.80772e-09
3.48326e-09
3.3342e-09
3.78822e-09
3.81505e-09
4.00746e-09
7.50789e-09
9.46016e-09
1.01138e-08
1.49427e-08
1.08941e-08
6.3807e-09
5.62688e-09
5.21652e-09
5.141e-09
4.62578e-09
3.53171e-09
2.49637e-09
2.21024e-09
1.76002e-09
1.64495e-09
1.68445e-09
2.29757e-09
3.23063e-09
4.72053e-09
5.85132e-09
7.51082e-09
9.10782e-09
9.24074e-09
1.64366e-08
3.60424e-08
1.70288e-08
1.15345e-08
1.04275e-08
1.20689e-08
1.42967e-08
2.10836e-08
1.58679e-08
9.76821e-09
6.60119e-09
9.68534e-09
2.41196e-08
2.06995e-08
1.96894e-08
1.82906e-08
1.46457e-08
1.72241e-08
2.52401e-08
2.72075e-08
2.83635e-08
2.6613e-08
2.45944e-08
2.31946e-08
2.4386e-08
2.67648e-08
2.73842e-08
2.87639e-08
2.96775e-08
3.02841e-08
3.1641e-08
3.34236e-08
3.51773e-08
3.73539e-08
3.91428e-08
4.12053e-08
4.42055e-08
4.78413e-08
5.25415e-08
5.69115e-08
6.04392e-08
6.54676e-08
7.3018e-08
8.28249e-08
9.53385e-08
1.0939e-07
1.26961e-07
1.51672e-07
1.76612e-07
1.93251e-07
2.21958e-07
2.5197e-07
2.23029e-07
1.71496e-07
1.4196e-07
1.25946e-07
1.10816e-07
9.31334e-08
8.00138e-08
7.19055e-08
6.48195e-08
5.87276e-08
5.35071e-08
4.8946e-08
4.53193e-08
4.23245e-08
3.94915e-08
3.65966e-08
3.40537e-08
3.20971e-08
3.07118e-08
2.93642e-08
2.76505e-08
2.60105e-08
2.47336e-08
2.3649e-08
2.25779e-08
2.15435e-08
2.07133e-08
2.00017e-08
1.93372e-08
1.86518e-08
1.79562e-08
1.73088e-08
1.67328e-08
1.62132e-08
1.58491e-08
1.55812e-08
1.52794e-08
1.50193e-08
1.47648e-08
1.45295e-08
1.43851e-08
1.43038e-08
1.42839e-08
1.43742e-08
1.44686e-08
1.44968e-08
1.45778e-08
1.47688e-08
1.51198e-08
1.54691e-08
1.57784e-08
1.61966e-08
1.66588e-08
1.71413e-08
1.77257e-08
1.83521e-08
1.90162e-08
1.97671e-08
2.05146e-08
2.13191e-08
2.23143e-08
2.32145e-08
2.40261e-08
2.50308e-08
2.62721e-08
2.76045e-08
2.89866e-08
3.03525e-08
3.15965e-08
3.32609e-08
3.53752e-08
3.72863e-08
3.90883e-08
4.13301e-08
4.4039e-08
4.72107e-08
5.07802e-08
5.40941e-08
5.71483e-08
6.12202e-08
6.66458e-08
7.29263e-08
7.92065e-08
8.56808e-08
9.43656e-08
1.05073e-07
1.15571e-07
1.2773e-07
1.4629e-07
1.6931e-07
1.92104e-07
2.16401e-07
2.52128e-07
3.03092e-07
3.72782e-07
4.59813e-07
5.826e-07
6.6086e-07
6.27145e-07
5.41533e-07
4.62979e-07
4.0455e-07
3.5988e-07
3.30206e-07
3.06141e-07
2.80313e-07
2.50942e-07
2.29154e-07
2.20324e-07
2.17078e-07
2.09691e-07
1.94041e-07
1.82415e-07
1.79384e-07
1.78032e-07
1.7212e-07
1.65764e-07
1.62263e-07
1.60945e-07
1.59301e-07
1.55919e-07
1.51445e-07
1.47867e-07
1.48232e-07
1.49387e-07
1.47687e-07
1.44865e-07
1.42313e-07
1.40439e-07
1.40183e-07
1.41748e-07
1.41435e-07
1.39056e-07
1.37012e-07
1.36447e-07
1.36861e-07
1.36932e-07
1.36121e-07
1.34191e-07
1.3402e-07
1.34987e-07
1.3459e-07
1.32952e-07
1.32286e-07
1.3259e-07
1.32364e-07
1.31974e-07
1.31207e-07
1.30441e-07
1.30906e-07
1.3092e-07
1.30473e-07
1.29805e-07
1.2949e-07
1.29462e-07
1.29497e-07
1.29887e-07
1.29283e-07
1.28199e-07
1.28292e-07
1.28774e-07
1.28809e-07
1.28457e-07
1.28152e-07
1.28161e-07
1.28368e-07
1.28825e-07
1.28734e-07
1.28223e-07
1.28329e-07
1.2865e-07
1.28789e-07
1.28721e-07
1.28784e-07
1.28658e-07
1.28526e-07
1.29046e-07
1.2952e-07
1.29672e-07
1.30031e-07
1.30149e-07
1.29979e-07
1.30042e-07
1.3044e-07
1.30866e-07
1.30731e-07
1.30959e-07
1.3176e-07
1.32087e-07
1.32249e-07
1.32217e-07
1.32599e-07
1.33716e-07
1.34421e-07
1.34189e-07
1.33858e-07
1.34527e-07
1.35896e-07
1.36689e-07
1.36754e-07
1.36863e-07
1.37405e-07
1.38682e-07
1.39841e-07
1.40159e-07
1.40747e-07
1.41457e-07
1.42386e-07
1.43534e-07
1.44273e-07
1.44775e-07
1.45716e-07
1.47401e-07
1.4904e-07
1.49795e-07
1.50536e-07
1.51366e-07
1.52825e-07
1.54125e-07
1.5537e-07
1.56915e-07
1.5859e-07
1.60025e-07
1.61044e-07
1.62644e-07
1.64527e-07
1.66628e-07
1.67475e-07
1.69115e-07
1.71365e-07
1.73698e-07
1.75304e-07
1.7843e-07
1.80343e-07
1.82493e-07
1.8393e-07
1.86662e-07
1.88486e-07
1.92446e-07
1.94699e-07
1.98185e-07
1.99626e-07
1.98688e-07
2.02127e-07
2.02624e-07
2.104e-07
2.12695e-07
2.23985e-07
2.25177e-07
2.1079e-07
2.16211e-07
2.20972e-07
2.35462e-07
3.60149e-07
3.29408e-07
1.7083e-07
1.70598e-07
1.2889e-07
1.16414e-07
7.5489e-08
8.16263e-08
1.28663e-07
1.37224e-07
1.72194e-07
1.90889e-07
4.53779e-07
3.07472e-07
2.44744e-07
2.64636e-07
2.57154e-07
3.79943e-07
3.26453e-07
2.38781e-07
2.00423e-07
1.92647e-07
1.6533e-07
1.5225e-07
1.06487e-07
1.155e-07
1.82221e-07
1.93248e-07
2.40473e-07
2.56841e-07
6.21293e-07
4.54128e-07
4.65089e-07
4.21813e-07
3.36932e-07
3.24134e-07
2.88808e-07
2.98209e-07
3.70827e-07
6.7064e-07
4.69722e-07
1.09693e-07
9.08372e-08
4.88794e-08
4.18479e-08
2.49767e-08
2.57435e-08
4.27634e-08
4.42667e-08
5.01581e-08
5.83728e-08
9.43687e-08
1.14645e-07
1.48496e-07
1.51464e-07
1.4522e-07
1.51968e-07
1.61842e-07
1.74035e-07
1.87319e-07
2.01298e-07
2.15717e-07
2.30143e-07
2.44176e-07
2.57988e-07
2.7216e-07
2.8734e-07
3.03819e-07
3.21355e-07
3.39423e-07
3.5755e-07
3.75497e-07
3.92814e-07
4.07412e-07
4.23207e-07
4.40656e-07
4.59342e-07
4.79046e-07
5.00652e-07
5.23595e-07
5.46437e-07
5.67593e-07
5.86711e-07
6.0389e-07
6.21113e-07
6.40679e-07
6.64162e-07
6.92289e-07
7.24409e-07
7.60529e-07
7.98081e-07
8.32486e-07
8.62532e-07
8.89378e-07
9.16956e-07
9.5028e-07
9.91136e-07
1.03642e-06
1.07937e-06
1.11528e-06
1.14744e-06
1.18677e-06
1.24389e-06
1.32022e-06
1.40224e-06
1.46496e-06
1.50124e-06
1.52143e-06
1.52159e-06
1.50183e-06
1.47874e-06
1.48576e-06
1.58674e-06
1.79006e-06
1.91433e-06
1.83345e-06
1.67527e-06
1.68302e-06
2.02533e-06
2.39309e-06
2.12453e-06
1.72651e-06
1.74213e-06
2.11752e-06
2.08468e-06
1.70943e-06
1.8506e-06
1.44164e-06
7.76237e-07
1.99227e-07
7.21231e-08
4.89595e-08
8.65285e-08
5.13465e-10
2.44784e-09
4.34271e-09
4.59302e-09
5.9721e-09
4.10496e-09
5.20383e-09
5.09923e-09
4.83137e-09
4.507e-09
4.30135e-09
4.1865e-09
4.18014e-09
4.25744e-09
4.43201e-09
4.60395e-09
4.52372e-09
4.28884e-09
4.23612e-09
4.36964e-09
4.58562e-09
4.72925e-09
4.72455e-09
4.7469e-09
4.94489e-09
4.96167e-09
4.66798e-09
4.46493e-09
4.56994e-09
4.73892e-09
4.89554e-09
4.70186e-09
4.41224e-09
4.41036e-09
4.82296e-09
5.29615e-09
5.38287e-09
4.67101e-09
4.09123e-09
3.98528e-09
4.38947e-09
5.25497e-09
5.69875e-09
5.17201e-09
4.4148e-09
4.10667e-09
4.34057e-09
5.06441e-09
5.89691e-09
5.92229e-09
5.52467e-09
5.80618e-09
6.96734e-09
7.71416e-09
7.60667e-09
7.32536e-09
7.02339e-09
6.90613e-09
7.3071e-09
7.55078e-09
6.84213e-09
6.18989e-09
6.05974e-09
6.42567e-09
7.8081e-09
8.4124e-09
8.69127e-09
7.92889e-09
5.85938e-09
4.97078e-09
4.8738e-09
5.05229e-09
5.32642e-09
5.95358e-09
7.13258e-09
7.70659e-09
6.79458e-09
5.75419e-09
5.13357e-09
4.62583e-09
4.08647e-09
3.65886e-09
3.22324e-09
3.17772e-09
3.81959e-09
3.76661e-09
3.72344e-09
3.50046e-09
2.69042e-09
2.44132e-09
3.00126e-09
2.89313e-09
5.20942e-09
7.28099e-09
6.90655e-09
1.12103e-08
1.03853e-08
5.52196e-09
5.4929e-09
5.34349e-09
5.36483e-09
4.88241e-09
3.69692e-09
2.59641e-09
2.20376e-09
1.75472e-09
1.56965e-09
1.58854e-09
1.67938e-09
2.36489e-09
4.40283e-09
5.01096e-09
6.8934e-09
8.75693e-09
8.52341e-09
1.39204e-08
2.34121e-08
1.65959e-08
1.16241e-08
9.61471e-09
1.22846e-08
1.38357e-08
2.01565e-08
1.39111e-08
9.08023e-09
5.98024e-09
8.61008e-09
2.2467e-08
1.95372e-08
2.03128e-08
1.91459e-08
1.53699e-08
1.82314e-08
2.71612e-08
2.84056e-08
2.88706e-08
2.76586e-08
2.57615e-08
2.42415e-08
2.60047e-08
2.94627e-08
3.04389e-08
3.20297e-08
3.28498e-08
3.349e-08
3.54224e-08
3.8257e-08
4.1074e-08
4.38467e-08
4.65673e-08
5.00512e-08
5.42103e-08
5.82267e-08
6.34461e-08
7.09365e-08
7.89101e-08
8.71621e-08
9.79375e-08
1.1185e-07
1.30505e-07
1.45172e-07
1.53049e-07
1.63043e-07
1.7311e-07
1.61167e-07
1.35561e-07
1.2073e-07
1.13129e-07
9.95983e-08
8.40582e-08
7.42279e-08
6.78726e-08
6.16993e-08
5.57814e-08
5.10275e-08
4.7315e-08
4.40038e-08
4.08797e-08
3.77893e-08
3.52871e-08
3.34077e-08
3.17762e-08
3.02319e-08
2.85627e-08
2.68553e-08
2.5315e-08
2.4117e-08
2.32815e-08
2.24129e-08
2.15057e-08
2.0675e-08
1.9834e-08
1.90031e-08
1.83543e-08
1.78493e-08
1.73991e-08
1.68867e-08
1.63562e-08
1.58916e-08
1.55903e-08
1.54287e-08
1.52613e-08
1.49619e-08
1.46459e-08
1.45035e-08
1.45528e-08
1.4623e-08
1.46598e-08
1.46289e-08
1.45653e-08
1.46475e-08
1.49119e-08
1.52734e-08
1.55108e-08
1.56939e-08
1.60517e-08
1.65359e-08
1.70247e-08
1.75505e-08
1.81337e-08
1.86582e-08
1.92658e-08
2.00348e-08
2.09293e-08
2.19372e-08
2.28565e-08
2.36138e-08
2.44393e-08
2.55599e-08
2.69766e-08
2.84991e-08
2.9918e-08
3.10793e-08
3.25907e-08
3.45531e-08
3.65571e-08
3.83948e-08
4.05392e-08
4.33381e-08
4.63385e-08
4.93582e-08
5.2515e-08
5.56681e-08
5.97716e-08
6.50576e-08
7.13791e-08
7.7779e-08
8.35245e-08
9.04096e-08
9.99677e-08
1.10597e-07
1.2193e-07
1.37698e-07
1.58689e-07
1.80442e-07
1.9933e-07
2.25479e-07
2.61537e-07
3.02763e-07
3.50253e-07
4.22172e-07
4.58664e-07
4.31141e-07
4.01176e-07
3.78461e-07
3.5116e-07
3.23769e-07
3.04543e-07
2.85399e-07
2.60385e-07
2.32752e-07
2.17439e-07
2.12612e-07
2.11352e-07
2.05029e-07
1.91488e-07
1.79999e-07
1.75639e-07
1.73446e-07
1.67314e-07
1.61578e-07
1.61893e-07
1.62435e-07
1.57495e-07
1.51487e-07
1.48065e-07
1.47002e-07
1.48501e-07
1.49247e-07
1.46049e-07
1.42686e-07
1.41132e-07
1.39487e-07
1.39339e-07
1.41336e-07
1.4018e-07
1.38046e-07
1.37567e-07
1.36902e-07
1.3605e-07
1.35626e-07
1.34682e-07
1.33917e-07
1.35061e-07
1.35132e-07
1.33444e-07
1.32183e-07
1.32284e-07
1.3324e-07
1.32455e-07
1.31167e-07
1.30466e-07
1.30738e-07
1.31398e-07
1.30728e-07
1.29896e-07
1.29631e-07
1.30253e-07
1.29761e-07
1.29082e-07
1.29685e-07
1.29336e-07
1.28525e-07
1.289e-07
1.28623e-07
1.28476e-07
1.28879e-07
1.28642e-07
1.28455e-07
1.2853e-07
1.28788e-07
1.28799e-07
1.2856e-07
1.28806e-07
1.28996e-07
1.28948e-07
1.28708e-07
1.28701e-07
1.28698e-07
1.28792e-07
1.29211e-07
1.29535e-07
1.29901e-07
1.30157e-07
1.30377e-07
1.30451e-07
1.302e-07
1.30263e-07
1.30559e-07
1.30532e-07
1.31231e-07
1.32176e-07
1.32e-07
1.3192e-07
1.3202e-07
1.327e-07
1.3373e-07
1.3425e-07
1.34281e-07
1.34215e-07
1.34686e-07
1.35493e-07
1.36413e-07
1.3659e-07
1.36717e-07
1.37574e-07
1.38918e-07
1.39702e-07
1.39965e-07
1.40544e-07
1.41167e-07
1.42089e-07
1.43328e-07
1.44202e-07
1.44762e-07
1.45705e-07
1.47425e-07
1.48615e-07
1.49263e-07
1.50181e-07
1.51257e-07
1.52708e-07
1.53984e-07
1.55278e-07
1.56872e-07
1.58231e-07
1.59616e-07
1.60893e-07
1.62283e-07
1.64267e-07
1.66152e-07
1.67678e-07
1.69102e-07
1.71711e-07
1.73218e-07
1.75485e-07
1.77889e-07
1.80348e-07
1.81839e-07
1.84751e-07
1.86417e-07
1.90329e-07
1.91824e-07
1.94818e-07
1.96191e-07
2.03549e-07
2.03127e-07
2.16507e-07
2.11953e-07
2.01804e-07
2.01402e-07
1.9738e-07
2.1102e-07
2.17755e-07
3.29663e-07
2.98697e-07
1.61464e-07
1.60582e-07
1.22054e-07
1.09891e-07
7.20788e-08
7.78696e-08
1.2094e-07
1.25012e-07
1.5736e-07
1.82105e-07
4.85327e-07
4.04028e-07
2.84128e-07
3.13712e-07
2.80098e-07
3.4768e-07
3.08373e-07
1.89337e-07
1.87086e-07
1.72886e-07
1.48605e-07
1.27452e-07
9.83964e-08
1.04865e-07
1.62948e-07
1.67751e-07
2.082e-07
2.33834e-07
5.49506e-07
5.5561e-07
4.98617e-07
5.12067e-07
3.2898e-07
3.08438e-07
3.30547e-07
3.44072e-07
4.7909e-07
8.73118e-07
3.29278e-07
9.88997e-08
8.09131e-08
4.5307e-08
3.91669e-08
2.45149e-08
2.46885e-08
3.87042e-08
3.80297e-08
4.54277e-08
5.99511e-08
1.03167e-07
1.17597e-07
3.79737e-07
3.06481e-07
1.53781e-07
1.47745e-07
1.54187e-07
1.61504e-07
1.71903e-07
1.83942e-07
1.96554e-07
2.08693e-07
2.20765e-07
2.33463e-07
2.46535e-07
2.59194e-07
2.715e-07
2.84294e-07
2.98181e-07
3.13073e-07
3.28681e-07
3.44246e-07
3.5925e-07
3.74672e-07
3.90641e-07
4.02906e-07
4.1751e-07
4.35668e-07
4.55757e-07
4.78107e-07
5.02411e-07
5.26686e-07
5.50003e-07
5.70827e-07
5.8893e-07
6.04186e-07
6.19611e-07
6.386e-07
6.62544e-07
6.91209e-07
7.24002e-07
7.57983e-07
7.96629e-07
8.30235e-07
8.58378e-07
8.85071e-07
9.15161e-07
9.52793e-07
9.96857e-07
1.04083e-06
1.07623e-06
1.10057e-06
1.12372e-06
1.16146e-06
1.22493e-06
1.3118e-06
1.39819e-06
1.45066e-06
1.46263e-06
1.45391e-06
1.43879e-06
1.43337e-06
1.45753e-06
1.53257e-06
1.69159e-06
1.86196e-06
1.84819e-06
1.73497e-06
1.69975e-06
1.92353e-06
2.30911e-06
2.27391e-06
1.8574e-06
1.726e-06
1.9157e-06
1.94288e-06
1.69626e-06
1.73664e-06
2.36498e-06
1.67557e-06
8.2979e-07
1.96563e-07
7.2213e-08
4.917e-08
8.58454e-08
6.61326e-10
2.75204e-09
1.75288e-09
3.18689e-09
3.64658e-09
6.11013e-09
1.64763e-08
8.76904e-09
6.32572e-09
5.24451e-09
4.73343e-09
4.47512e-09
4.39251e-09
4.36835e-09
4.37834e-09
4.33339e-09
4.25209e-09
4.18254e-09
4.25304e-09
4.44842e-09
4.58239e-09
4.47776e-09
4.32271e-09
4.34383e-09
4.74765e-09
5.30096e-09
5.18532e-09
4.64169e-09
4.33707e-09
4.28802e-09
4.44218e-09
4.56763e-09
4.38788e-09
4.22144e-09
4.38115e-09
4.7228e-09
4.84651e-09
4.42885e-09
3.93775e-09
3.77067e-09
4.21984e-09
5.14299e-09
5.62335e-09
5.19456e-09
4.43625e-09
3.943e-09
4.02182e-09
4.49982e-09
5.17838e-09
5.61583e-09
5.57486e-09
5.58871e-09
6.29111e-09
7.31707e-09
7.35052e-09
6.95935e-09
7.11647e-09
7.93222e-09
8.36186e-09
7.36328e-09
5.92459e-09
5.18503e-09
5.12979e-09
5.68015e-09
6.11149e-09
6.0301e-09
6.1858e-09
6.13397e-09
5.48833e-09
4.82647e-09
4.34041e-09
4.30728e-09
4.46219e-09
4.55033e-09
4.70483e-09
4.91608e-09
5.33407e-09
5.52335e-09
5.48276e-09
5.26075e-09
4.98719e-09
4.76785e-09
4.45228e-09
4.01897e-09
3.63933e-09
3.40891e-09
2.98683e-09
3.0096e-09
3.30726e-09
3.7739e-09
3.53535e-09
2.7099e-09
2.7277e-09
2.60901e-09
2.51446e-09
4.07599e-09
5.42578e-09
5.53586e-09
1.25044e-08
1.53247e-08
7.53849e-09
7.82547e-09
7.43556e-09
6.69337e-09
6.08584e-09
4.14275e-09
2.91315e-09
2.18691e-09
1.83143e-09
1.62002e-09
1.53228e-09
1.57094e-09
2.33763e-09
4.08581e-09
4.8044e-09
6.4179e-09
7.96547e-09
7.93198e-09
1.39064e-08
2.41225e-08
1.77252e-08
1.19059e-08
9.73305e-09
1.24305e-08
1.35065e-08
1.85921e-08
1.25147e-08
8.25355e-09
5.42657e-09
7.76729e-09
2.13112e-08
1.84449e-08
2.13803e-08
2.29561e-08
2.19179e-08
1.55436e-08
1.76412e-08
2.7897e-08
2.92446e-08
2.92195e-08
2.81429e-08
2.66743e-08
2.94619e-08
3.3482e-08
3.38892e-08
3.51629e-08
3.69257e-08
3.9053e-08
4.2397e-08
4.56021e-08
4.79511e-08
5.16387e-08
5.62759e-08
6.11736e-08
6.7855e-08
7.4901e-08
8.11734e-08
8.88567e-08
9.71295e-08
1.09243e-07
1.20208e-07
1.26241e-07
1.29967e-07
1.31087e-07
1.24605e-07
1.13628e-07
1.05555e-07
9.8691e-08
8.6727e-08
7.55067e-08
6.83498e-08
6.27454e-08
5.79734e-08
5.32376e-08
4.87945e-08
4.53221e-08
4.20597e-08
3.89541e-08
3.62895e-08
3.42258e-08
3.26832e-08
3.1183e-08
2.93012e-08
2.75667e-08
2.60881e-08
2.47092e-08
2.368e-08
2.29627e-08
2.22519e-08
2.14111e-08
2.04424e-08
1.95638e-08
1.88038e-08
1.82157e-08
1.77777e-08
1.74496e-08
1.70499e-08
1.65646e-08
1.60892e-08
1.57323e-08
1.55736e-08
1.54272e-08
1.52325e-08
1.49735e-08
1.47944e-08
1.48189e-08
1.48976e-08
1.48819e-08
1.47824e-08
1.47616e-08
1.4863e-08
1.51106e-08
1.54374e-08
1.55847e-08
1.56732e-08
1.59362e-08
1.63535e-08
1.68767e-08
1.74264e-08
1.79173e-08
1.83084e-08
1.88176e-08
1.95945e-08
2.05394e-08
2.14533e-08
2.23025e-08
2.31137e-08
2.39878e-08
2.49728e-08
2.61595e-08
2.76467e-08
2.92416e-08
3.06467e-08
3.20027e-08
3.35372e-08
3.5495e-08
3.76327e-08
3.97153e-08
4.21674e-08
4.50091e-08
4.78114e-08
5.08907e-08
5.45626e-08
5.87043e-08
6.31308e-08
6.88445e-08
7.52062e-08
8.0289e-08
8.61884e-08
9.51756e-08
1.05754e-07
1.16115e-07