/*--------------------------------*- C++ -*----------------------------------*\
| =========                 |                                                 |
| \\      /  F ield         | OpenFOAM: The Open Source CFD Toolbox           |
|  \\    /   O peration     | Version:  v2006                                 |
|   \\  /    A nd           | Website:  www.openfoam.com                      |
|    \\/     M anipulation  |                                                 |
\*---------------------------------------------------------------------------*/
FoamFile
{
    version     2.0;
    format      ascii;
    class       volScalarField;
    location    "4.2";
    object      p;
}
// * * * * * * * * * * * * * * * * * * * * * * * * * * * * * * * * * * * * * //

dimensions      [1 -1 -2 0 0 0 0];


internalField   nonuniform List<scalar> 
33000
(
8066.82
8046.65
8021.44
8012.39
8007.94
8000.91
7992.21
7983.51
7974.75
7965.92
7957.01
7948.05
7939.01
7929.9
7920.71
7911.46
7902.14
7892.74
7883.25
7873.69
7864.06
7854.35
7844.58
7834.75
7824.88
7814.94
7804.94
7794.88
7784.76
7774.61
7764.43
7754.2
7743.93
7733.62
7723.29
7712.95
7702.59
7692.21
7681.82
7671.41
7660.99
7650.59
7640.2
7629.82
7619.46
7609.11
7598.78
7588.48
7578.23
7568.02
7557.86
7547.75
7537.72
7527.75
7517.87
7508.08
7498.38
7488.76
7479.25
7469.84
7460.56
7451.42
7442.39
7433.5
7424.76
7416.17
7407.77
7399.55
7391.5
7383.59
7375.76
7367.95
7360.19
7352.57
7345.34
7338.81
7333.33
7328.1
7319.73
7306.83
7301.95
7293.22
7285.6
7277.88
7269.54
7261.52
7254.13
7246.65
7239.49
7232.31
7225.29
7218.37
7211.55
7205.05
7198.31
7191.71
7184.66
7177.39
7170.03
7162.88
7156.74
7150.39
7144.73
7138.92
7133.52
7128.39
7123.6
7118.98
7114.51
7110.35
7106.38
7102.67
7099.15
7096.07
7092.84
7090.22
7086.99
7084.63
7083.47
7081.86
7080.98
7080.33
7080.02
7080.25
7081.04
7082.09
7083.66
7085.58
7087.93
7090.75
7093.99
7097.64
7101.75
7106.25
7111.19
7116.54
7122.34
7128.56
7135.21
7142.3
7149.8
7157.72
7166.05
7174.78
7183.9
7193.41
7203.29
7213.51
7224.07
7234.97
7246.18
7257.7
7269.5
7281.56
7293.87
7306.41
7319.18
7332.16
7345.33
7358.65
7372.13
7385.76
7399.5
7413.34
7427.27
7441.26
7455.32
7469.4
7483.49
7497.57
7511.64
7525.68
7539.66
7553.57
7567.38
7581.09
7594.68
7608.14
7621.44
7634.57
7647.53
7660.29
7672.85
7685.19
7697.29
7709.16
7720.78
7732.15
7743.24
7754.06
7764.59
7774.84
7784.8
7794.46
7803.82
7812.89
7821.66
7830.12
7838.3
7846.18
7853.78
7861.1
7868.14
7874.91
7881.43
7887.7
7893.75
7899.57
7905.18
7910.59
7915.82
7920.87
7925.77
7930.51
7935.11
7939.6
7943.97
7948.23
7952.37
7956.38
7960.24
7963.96
7967.53
7970.93
7974.17
7977.22
7980.09
7982.79
7985.3
7987.62
7989.75
7991.7
7993.45
7995.01
7996.4
7997.59
7998.61
7999.45
8000.1
8000.59
8000.91
8001.07
8001.06
8000.9
8000.59
8000.14
7999.55
7998.82
7997.97
7996.99
7995.9
7994.7
7993.39
7991.98
7990.48
7988.89
7987.21
7985.46
7983.63
7981.73
7979.76
7977.74
7975.66
7973.53
7971.36
7969.14
7966.88
7964.58
7962.26
7959.91
7957.53
7955.13
7952.71
7950.27
7947.83
7945.37
7942.9
7940.43
7937.96
7935.48
7933
7930.53
7928.05
7925.59
7923.12
7920.67
7918.22
7915.78
7913.34
7910.92
7908.51
7906.1
7903.71
7901.33
7898.96
7896.61
7894.27
7891.94
7889.63
7887.34
7885.06
7882.8
7880.55
7878.32
7876.11
7873.92
7871.74
7869.59
7867.45
7865.32
7863.22
7861.13
7859.06
7857.01
7854.97
7852.96
7850.96
7848.97
7847.01
7845.06
7843.13
7841.22
7839.33
7837.45
7835.59
7833.75
7831.92
7830.12
7828.33
7826.56
7824.81
7823.07
7821.36
7819.66
7817.98
7816.32
7814.67
7813.05
7811.44
7809.86
7808.29
7806.74
7805.21
7803.7
7802.2
7800.73
7799.27
7797.84
7796.42
7795.02
7793.64
7792.28
7790.94
7789.62
7788.32
7787.04
7785.77
7784.52
7783.3
7782.09
7780.9
7779.72
7778.57
7777.43
7776.32
7775.22
7774.14
7773.08
7772.03
7771
7769.99
7769
7768.02
7767.07
7766.12
7765.2
7764.29
7763.39
7762.52
7761.65
7760.81
7759.98
7759.16
7758.36
7757.57
7756.8
7756.04
7755.29
7754.56
7753.84
7753.14
7752.44
7751.76
7751.1
7750.44
7749.8
7749.17
7748.55
7747.95
7747.35
7746.77
7746.19
7745.63
7745.08
7744.54
7744.01
7743.49
7742.97
7742.47
7741.98
7741.5
7741.02
7740.56
7740.1
7739.65
7739.21
7738.78
7738.36
7737.94
7737.53
7737.13
7736.74
7736.36
7735.98
7735.61
7735.24
7734.89
7734.54
7734.19
7733.86
7733.53
7733.2
7732.89
7732.57
7732.27
7731.97
7731.67
7731.38
7731.1
7730.82
7730.55
7730.28
7730.02
7729.77
7729.52
7729.27
7729.03
7728.8
7728.57
7728.35
7728.13
7727.92
7727.71
7727.51
7727.31
7727.11
7726.93
7726.74
7726.56
7726.39
7726.22
7726.05
7725.89
7725.74
7725.59
7725.44
7725.31
7725.18
7725
7724.92
7724.83
7724.74
7724.63
7724.53
7724.42
7724.32
7724.21
7724.1
7723.99
7723.88
7723.77
7723.66
7723.56
7723.45
7723.34
7723.24
7723.13
7723.02
7722.92
7722.82
7722.71
7722.61
7722.51
7722.41
7722.31
7722.21
7722.11
7722.01
7721.91
7721.81
7721.71
7721.62
7721.52
7721.42
7721.33
7721.23
7721.14
7721.04
7720.95
7720.85
7720.76
7720.66
7720.57
7720.47
7720.38
7720.29
7720.19
7720.1
7720
7719.91
7719.81
7719.72
7719.62
7719.52
7719.43
7719.33
7719.23
7719.13
7719.03
7718.93
7718.83
7718.73
7718.63
7718.53
7718.43
7718.32
7718.22
7718.11
7718
7717.9
7717.79
7717.68
7717.57
7717.46
7717.35
7717.23
7717.12
7717.01
7716.86
7716.8
7840.65
7815.44
7804.13
7806.83
7806.59
7801.51
7794.33
7786.37
7778
7769.39
7760.63
7751.75
7742.77
7733.71
7724.57
7715.34
7706.02
7696.61
7687.12
7677.57
7667.94
7658.25
7648.49
7638.67
7628.78
7618.82
7608.82
7598.76
7588.65
7578.49
7568.29
7558.05
7547.77
7537.46
7527.13
7516.78
7506.4
7496
7485.59
7475.17
7464.74
7454.34
7443.94
7433.54
7423.16
7412.79
7402.45
7392.15
7381.89
7371.67
7361.5
7351.38
7341.34
7331.38
7321.48
7311.68
7301.95
7292.31
7282.79
7273.37
7264.07
7254.9
7245.83
7236.91
7228.12
7219.48
7211
7202.69
7194.54
7186.49
7178.51
7170.63
7162.91
7155.34
7147.91
7140.63
7133.62
7126.98
7120.79
7115.39
7109.77
7099.23
7085.79
7080.83
7072.82
7065.74
7058.12
7051.04
7042.92
7035.45
7028.52
7021.53
7014.61
7007.78
7000.9
6994.16
6987.36
6980.15
6973.05
6965.85
6959.49
6953.16
6947.25
6942.78
6937.18
6932.28
6926.96
6922.37
6917.59
6913.52
6909.7
6906.01
6902.55
6899.28
6896.21
6893.45
6890.91
6888.58
6886.91
6884.39
6883.28
6883.59
6883.36
6883.77
6884.28
6885.18
6886.64
6888.74
6891.11
6893.99
6897.18
6900.81
6904.9
6909.43
6914.37
6919.74
6925.53
6931.76
6938.4
6945.5
6953.01
6960.94
6969.28
6978.02
6987.16
6996.67
7006.56
7016.8
7027.38
7038.29
7049.53
7061.06
7072.87
7084.94
7097.28
7109.85
7122.64
7135.63
7148.81
7162.16
7175.66
7189.3
7203.06
7216.93
7230.87
7244.89
7258.96
7273.06
7287.17
7301.28
7315.37
7329.43
7343.43
7357.36
7371.19
7384.92
7398.52
7412
7425.32
7438.47
7451.44
7464.22
7476.78
7489.13
7501.24
7513.12
7524.75
7536.12
7547.22
7558.04
7568.58
7578.83
7588.78
7598.44
7607.81
7616.88
7625.65
7634.12
7642.29
7650.17
7657.77
7665.09
7672.13
7678.91
7685.43
7691.71
7697.76
7703.58
7709.19
7714.61
7719.84
7724.9
7729.8
7734.55
7739.16
7743.66
7748.03
7752.3
7756.45
7760.47
7764.34
7768.07
7771.64
7775.05
7778.29
7781.35
7784.23
7786.92
7789.43
7791.75
7793.89
7795.83
7797.58
7799.15
7800.52
7801.72
7802.73
7803.56
7804.21
7804.69
7805
7805.15
7805.14
7804.98
7804.66
7804.2
7803.61
7802.87
7802.01
7801.03
7799.93
7798.72
7797.4
7795.99
7794.48
7792.88
7791.19
7789.43
7787.59
7785.68
7783.71
7781.68
7779.6
7777.46
7775.28
7773.05
7770.78
7768.48
7766.15
7763.8
7761.41
7759.01
7756.58
7754.15
7751.69
7749.23
7746.76
7744.29
7741.81
7739.33
7736.85
7734.37
7731.89
7729.42
7726.95
7724.49
7722.04
7719.6
7717.16
7714.73
7712.32
7709.91
7707.52
7705.14
7702.77
7700.41
7698.07
7695.75
7693.44
7691.14
7688.86
7686.6
7684.35
7682.12
7679.91
7677.72
7675.54
7673.39
7671.24
7669.12
7667.02
7664.93
7662.86
7660.8
7658.77
7656.75
7654.75
7652.77
7650.8
7648.86
7646.92
7645.01
7643.12
7641.24
7639.38
7637.54
7635.71
7633.91
7632.12
7630.35
7628.59
7626.86
7625.14
7623.44
7621.76
7620.1
7618.46
7616.83
7615.23
7613.64
7612.07
7610.52
7608.99
7607.48
7605.98
7604.51
7603.05
7601.61
7600.2
7598.8
7597.42
7596.06
7594.72
7593.4
7592.09
7590.81
7589.54
7588.3
7587.07
7585.86
7584.67
7583.5
7582.34
7581.21
7580.09
7578.99
7577.91
7576.85
7575.8
7574.78
7573.77
7572.77
7571.8
7570.84
7569.9
7568.97
7568.06
7567.17
7566.29
7565.43
7564.58
7563.75
7562.93
7562.13
7561.34
7560.57
7559.81
7559.07
7558.33
7557.62
7556.91
7556.22
7555.54
7554.87
7554.22
7553.58
7552.95
7552.33
7551.72
7551.13
7550.55
7549.97
7549.41
7548.86
7548.32
7547.79
7547.27
7546.75
7546.25
7545.76
7545.28
7544.8
7544.34
7543.88
7543.43
7542.99
7542.56
7542.14
7541.72
7541.32
7540.92
7540.52
7540.14
7539.76
7539.39
7539.03
7538.67
7538.32
7537.98
7537.64
7537.31
7536.99
7536.67
7536.36
7536.05
7535.75
7535.46
7535.17
7534.88
7534.61
7534.33
7534.07
7533.81
7533.55
7533.3
7533.06
7532.82
7532.59
7532.36
7532.13
7531.92
7531.7
7531.5
7531.29
7531.1
7530.9
7530.72
7530.53
7530.35
7530.17
7530.01
7529.84
7529.69
7529.53
7529.38
7529.17
7529.08
7528.98
7528.87
7528.76
7528.65
7528.55
7528.44
7528.33
7528.23
7528.12
7528.01
7527.9
7527.79
7527.68
7527.57
7527.46
7527.35
7527.25
7527.14
7527.03
7526.93
7526.82
7526.72
7526.61
7526.51
7526.41
7526.31
7526.21
7526.1
7526
7525.91
7525.81
7525.71
7525.61
7525.51
7525.42
7525.32
7525.22
7525.13
7525.03
7524.94
7524.84
7524.75
7524.65
7524.56
7524.46
7524.37
7524.27
7524.18
7524.09
7523.99
7523.9
7523.8
7523.71
7523.61
7523.52
7523.42
7523.32
7523.23
7523.13
7523.03
7522.93
7522.83
7522.74
7522.64
7522.53
7522.43
7522.33
7522.23
7522.12
7522.02
7521.91
7521.81
7521.7
7521.59
7521.48
7521.37
7521.26
7521.15
7521.03
7520.92
7520.81
7520.67
7520.6
7635.47
7613.17
7608.26
7607.35
7606.3
7601.94
7595.72
7588.52
7580.72
7572.51
7564.03
7555.34
7546.49
7537.51
7528.42
7519.22
7509.93
7500.55
7491.07
7481.53
7471.91
7462.22
7452.45
7442.62
7432.71
7422.75
7412.73
7402.67
7392.54
7382.36
7372.14
7361.88
7351.59
7341.27
7330.92
7320.54
7310.14
7299.72
7289.29
7278.85
7268.41
7257.98
7247.55
7237.12
7226.72
7216.35
7205.99
7195.67
7185.39
7175.16
7164.96
7154.83
7144.78
7134.79
7124.87
7115.02
7105.25
7095.6
7086.05
7076.6
7067.27
7058.06
7048.96
7039.99
7031.15
7022.45
7013.9
7005.48
6997.2
6989.01
6980.94
6973.03
6965.26
6957.59
6949.99
6942.52
6935.26
6928.02
6920.7
6913.48
6906.91
6900.73
6895.56
6889.09
6877.74
6864.16
6860.22
6852.44
6846.2
6839.15
6832.19
6824.54
6817.24
6810.72
6803.7
6796.96
6789.89
6783.09
6776.38
6770.25
6763.84
6757.52
6750.62
6744.82
6738.57
6733.58
6730.47
6725.58
6721.2
6716.96
6712.69
6708.8
6705.25
6702.27
6699.18
6696.52
6693.96
6691.82
6690.13
6688.81
6687.44
6686.71
6685.1
6685.12
6686.92
6687.94
6689.67
6691.42
6693.58
6696.32
6699.72
6703.39
6707.57
6712.01
6716.92
6722.2
6727.99
6734.25
6740.92
6748.05
6755.58
6763.52
6771.88
6780.66
6789.82
6799.37
6809.28
6819.55
6830.18
6841.13
6852.4
6863.96
6875.8
6887.91
6900.29
6912.9
6925.73
6938.76
6951.98
6965.36
6978.91
6992.58
7006.38
7020.29
7034.29
7048.35
7062.45
7076.6
7090.75
7104.91
7119.04
7133.13
7147.17
7161.13
7175.01
7188.77
7202.41
7215.91
7229.26
7242.44
7255.44
7268.24
7280.83
7293.2
7305.33
7317.23
7328.87
7340.25
7351.36
7362.19
7372.74
7382.99
7392.95
7402.62
7411.99
7421.06
7429.83
7438.31
7446.48
7454.36
7461.96
7469.28
7476.33
7483.12
7489.65
7495.94
7501.99
7507.82
7513.45
7518.88
7524.13
7529.2
7534.11
7538.88
7543.51
7548.02
7552.41
7556.69
7560.84
7564.87
7568.76
7572.5
7576.08
7579.49
7582.74
7585.8
7588.69
7591.39
7593.9
7596.22
7598.36
7600.3
7602.05
7603.61
7604.98
7606.16
7607.16
7607.98
7608.63
7609.09
7609.39
7609.53
7609.51
7609.33
7609
7608.52
7607.91
7607.16
7606.29
7605.29
7604.18
7602.95
7601.62
7600.19
7598.66
7597.05
7595.34
7593.56
7591.71
7589.79
7587.8
7585.76
7583.66
7581.51
7579.31
7577.07
7574.8
7572.48
7570.14
7567.77
7565.38
7562.96
7560.53
7558.09
7555.63
7553.16
7550.68
7548.2
7545.71
7543.22
7540.73
7538.24
7535.76
7533.28
7530.81
7528.34
7525.88
7523.43
7520.99
7518.56
7516.14
7513.73
7511.33
7508.95
7506.58
7504.22
7501.88
7499.55
7497.24
7494.94
7492.66
7490.4
7488.15
7485.92
7483.71
7481.52
7479.34
7477.18
7475.04
7472.91
7470.81
7468.72
7466.65
7464.59
7462.56
7460.54
7458.54
7456.55
7454.59
7452.64
7450.71
7448.79
7446.9
7445.02
7443.16
7441.31
7439.49
7437.68
7435.89
7434.12
7432.37
7430.63
7428.91
7427.21
7425.53
7423.87
7422.22
7420.6
7418.99
7417.4
7415.83
7414.28
7412.75
7411.23
7409.74
7408.26
7406.81
7405.37
7403.95
7402.55
7401.17
7399.81
7398.47
7397.15
7395.84
7394.56
7393.29
7392.04
7390.82
7389.61
7388.41
7387.24
7386.09
7384.95
7383.84
7382.74
7381.66
7380.59
7379.55
7378.52
7377.51
7376.52
7375.54
7374.58
7373.64
7372.71
7371.81
7370.91
7370.03
7369.17
7368.33
7367.5
7366.68
7365.88
7365.09
7364.32
7363.56
7362.81
7362.08
7361.37
7360.66
7359.97
7359.29
7358.63
7357.97
7357.33
7356.7
7356.08
7355.48
7354.88
7354.3
7353.73
7353.17
7352.62
7352.07
7351.54
7351.02
7350.51
7350.01
7349.52
7349.04
7348.56
7348.1
7347.64
7347.2
7346.76
7346.33
7345.9
7345.49
7345.08
7344.68
7344.29
7343.91
7343.53
7343.16
7342.8
7342.44
7342.1
7341.75
7341.42
7341.09
7340.76
7340.44
7340.13
7339.82
7339.52
7339.23
7338.94
7338.66
7338.38
7338.11
7337.84
7337.58
7337.33
7337.08
7336.83
7336.59
7336.36
7336.13
7335.91
7335.69
7335.48
7335.28
7335.07
7334.87
7334.68
7334.49
7334.31
7334.13
7333.96
7333.78
7333.62
7333.39
7333.29
7333.18
7333.06
7332.93
7332.81
7332.7
7332.58
7332.47
7332.36
7332.25
7332.14
7332.03
7331.92
7331.81
7331.7
7331.59
7331.48
7331.37
7331.26
7331.15
7331.04
7330.94
7330.83
7330.72
7330.62
7330.51
7330.41
7330.31
7330.21
7330.1
7330
7329.9
7329.8
7329.7
7329.6
7329.51
7329.41
7329.31
7329.21
7329.12
7329.02
7328.93
7328.83
7328.73
7328.64
7328.55
7328.45
7328.36
7328.26
7328.17
7328.07
7327.98
7327.89
7327.79
7327.7
7327.6
7327.51
7327.41
7327.32
7327.22
7327.13
7327.03
7326.93
7326.83
7326.74
7326.64
7326.54
7326.44
7326.34
7326.24
7326.13
7326.03
7325.93
7325.82
7325.72
7325.61
7325.5
7325.39
7325.29
7325.18
7325.06
7324.95
7324.84
7324.72
7324.61
7324.47
7324.4
7449.06
7433.07
7426.47
7417.76
7414.49
7407.18
7399.85
7392.38
7384.48
7376.27
7367.83
7359.19
7350.39
7341.45
7332.39
7323.21
7313.94
7304.57
7295.1
7285.55
7275.92
7266.21
7256.43
7246.59
7236.68
7226.7
7216.66
7206.56
7196.41
7186.21
7175.97
7165.69
7155.37
7145.02
7134.64
7124.24
7113.8
7103.36
7092.91
7082.44
7071.97
7061.5
7051.04
7040.59
7030.15
7019.74
7009.36
6999.01
6988.7
6978.44
6968.23
6958.07
6947.97
6937.95
6928
6918.11
6908.31
6898.62
6889.03
6879.54
6870.16
6860.89
6851.75
6842.72
6833.82
6825.07
6816.43
6807.91
6799.51
6791.23
6783.11
6775.1
6767.17
6759.35
6751.69
6744.17
6736.74
6729.36
6722.02
6714.68
6707.23
6699.69
6692.24
6685.33
6678.7
6672.67
6667.57
6661.06
6650.17
6637.91
6634.46
6627.24
6620.61
6613.39
6605.86
6598.76
6592.51
6585.65
6578.99
6572.2
6565.69
6559.78
6554.47
6549.29
6543.88
6538.22
6532.64
6527.4
6521.95
6517.99
6515.5
6511.64
6508.16
6504.6
6501.43
6498.73
6496.56
6494.39
6492.69
6491.1
6490.14
6489.58
6489.43
6489.04
6489.45
6488.68
6489.97
6493.3
6495.64
6498.71
6501.74
6505.14
6509.17
6513.84
6518.81
6524.23
6530.02
6536.23
6542.84
6549.95
6557.53
6565.51
6573.92
6582.71
6591.9
6601.48
6611.45
6621.78
6632.45
6643.45
6654.77
6666.39
6678.29
6690.46
6702.89
6715.56
6728.44
6741.53
6754.81
6768.26
6781.86
6795.6
6809.46
6823.43
6837.49
6851.62
6865.79
6879.99
6894.21
6908.43
6922.62
6936.77
6950.87
6964.89
6978.82
6992.64
7006.33
7019.88
7033.28
7046.5
7059.53
7072.37
7084.99
7097.4
7109.57
7121.49
7133.15
7144.55
7155.67
7166.52
7177.08
7187.34
7197.32
7206.99
7216.37
7225.44
7234.22
7242.7
7250.89
7258.78
7266.39
7273.72
7280.79
7287.59
7294.14
7300.44
7306.51
7312.36
7318.01
7323.46
7328.73
7333.82
7338.76
7343.55
7348.2
7352.73
7357.13
7361.42
7365.58
7369.61
7373.51
7377.26
7380.85
7384.27
7387.52
7390.59
7393.49
7396.19
7398.71
7401.03
7403.16
7405.09
7406.84
7408.39
7409.76
7410.93
7411.92
7412.72
7413.35
7413.8
7414.09
7414.2
7414.16
7413.96
7413.61
7413.11
7412.47
7411.7
7410.81
7409.79
7408.65
7407.4
7406.04
7404.58
7403.03
7401.39
7399.67
7397.87
7395.99
7394.04
7392.04
7389.97
7387.85
7385.68
7383.46
7381.21
7378.91
7376.58
7374.22
7371.84
7369.43
7367
7364.55
7362.09
7359.62
7357.14
7354.65
7352.15
7349.66
7347.16
7344.65
7342.16
7339.66
7337.17
7334.68
7332.21
7329.74
7327.28
7324.83
7322.39
7319.96
7317.55
7315.15
7312.76
7310.39
7308.03
7305.69
7303.36
7301.05
7298.75
7296.47
7294.2
7291.96
7289.73
7287.51
7285.31
7283.13
7280.97
7278.83
7276.7
7274.6
7272.5
7270.43
7268.38
7266.34
7264.32
7262.31
7260.33
7258.36
7256.41
7254.48
7252.57
7250.67
7248.79
7246.93
7245.08
7243.25
7241.45
7239.65
7237.88
7236.13
7234.39
7232.67
7230.97
7229.29
7227.62
7225.97
7224.35
7222.74
7221.15
7219.58
7218.02
7216.49
7214.97
7213.48
7212
7210.54
7209.1
7207.68
7206.28
7204.9
7203.54
7202.2
7200.87
7199.57
7198.28
7197.01
7195.77
7194.54
7193.33
7192.13
7190.96
7189.81
7188.67
7187.55
7186.45
7185.37
7184.31
7183.26
7182.24
7181.23
7180.23
7179.26
7178.3
7177.36
7176.43
7175.52
7174.63
7173.75
7172.89
7172.05
7171.21
7170.4
7169.6
7168.81
7168.04
7167.28
7166.54
7165.81
7165.09
7164.39
7163.7
7163.02
7162.35
7161.7
7161.06
7160.43
7159.82
7159.21
7158.62
7158.03
7157.46
7156.9
7156.35
7155.81
7155.28
7154.76
7154.25
7153.75
7153.26
7152.78
7152.31
7151.84
7151.39
7150.94
7150.5
7150.07
7149.65
7149.23
7148.83
7148.43
7148.04
7147.66
7147.29
7146.92
7146.56
7146.2
7145.85
7145.51
7145.17
7144.84
7144.52
7144.2
7143.89
7143.58
7143.28
7142.99
7142.69
7142.42
7142.14
7141.87
7141.6
7141.34
7141.08
7140.84
7140.59
7140.35
7140.12
7139.89
7139.67
7139.45
7139.24
7139.03
7138.84
7138.64
7138.46
7138.27
7138.08
7137.9
7137.65
7137.54
7137.42
7137.28
7137.15
7137.02
7136.89
7136.77
7136.65
7136.52
7136.41
7136.29
7136.17
7136.06
7135.95
7135.83
7135.72
7135.61
7135.5
7135.39
7135.28
7135.17
7135.06
7134.95
7134.84
7134.73
7134.63
7134.52
7134.42
7134.31
7134.21
7134.1
7134
7133.9
7133.8
7133.7
7133.6
7133.5
7133.4
7133.3
7133.2
7133.11
7133.01
7132.91
7132.82
7132.72
7132.63
7132.53
7132.44
7132.34
7132.25
7132.16
7132.06
7131.97
7131.87
7131.78
7131.69
7131.59
7131.5
7131.4
7131.31
7131.22
7131.12
7131.02
7130.93
7130.83
7130.74
7130.64
7130.54
7130.44
7130.34
7130.24
7130.14
7130.04
7129.94
7129.84
7129.73
7129.63
7129.52
7129.42
7129.31
7129.2
7129.09
7128.98
7128.87
7128.76
7128.65
7128.53
7128.42
7128.28
7128.21
7259.45
7248.58
7238.87
7229.11
7221.53
7213.26
7205.14
7197.08
7188.88
7180.52
7171.99
7163.32
7154.5
7145.55
7136.49
7127.32
7118.04
7108.66
7099.19
7089.63
7079.98
7070.25
7060.45
7050.59
7040.66
7030.66
7020.59
7010.45
7000.27
6990.05
6979.77
6969.46
6959.11
6948.72
6938.31
6927.86
6917.4
6906.92
6896.43
6885.93
6875.41
6864.9
6854.4
6843.91
6833.42
6822.97
6812.56
6802.18
6791.83
6781.52
6771.27
6761.07
6750.92
6740.85
6730.85
6720.93
6711.09
6701.35
6691.71
6682.16
6672.71
6663.37
6654.16
6645.06
6636.1
6627.25
6618.51
6609.89
6601.38
6593.03
6584.83
6576.72
6568.7
6560.77
6552.98
6545.3
6537.72
6530.27
6522.93
6515.56
6508.09
6500.56
6493.07
6485.64
6478.37
6471.17
6464.47
6458.33
6452.79
6448.16
6441.44
6429.89
6418.11
6416.3
6408.8
6402.35
6394.98
6387.73
6381.11
6375.57
6369.14
6363.13
6356.92
6351.22
6345.83
6341.04
6336.84
6331.77
6327.53
6321.73
6317.12
6312.11
6308.45
6307.27
6303.98
6301.4
6298.62
6296.38
6294.66
6293.59
6292.46
6291.85
6291.37
6291.55
6292.24
6293.32
6293.99
6295.57
6295.76
6298.21
6303.04
6306.64
6311.14
6315.4
6320.14
6325.13
6330.85
6337.29
6344.01
6351.25
6358.81
6366.79
6375.24
6384.12
6393.37
6403.03
6413.05
6423.44
6434.19
6445.26
6456.65
6468.34
6480.32
6492.58
6505.09
6517.83
6530.79
6543.95
6557.3
6570.84
6584.53
6598.35
6612.3
6626.35
6640.49
6654.7
6668.95
6683.24
6697.55
6711.85
6726.13
6740.36
6754.53
6768.63
6782.63
6796.52
6810.28
6823.9
6837.36
6850.64
6863.73
6876.61
6889.29
6901.74
6913.95
6925.91
6937.6
6949.02
6960.17
6971.03
6981.62
6991.91
7001.91
7011.6
7020.98
7030.06
7038.86
7047.36
7055.56
7063.48
7071.1
7078.45
7085.54
7092.36
7098.94
7105.26
7111.36
7117.24
7122.92
7128.41
7133.7
7138.83
7143.79
7148.61
7153.29
7157.83
7162.25
7166.54
7170.71
7174.75
7178.65
7182.4
7185.99
7189.42
7192.67
7195.75
7198.64
7201.35
7203.86
7206.18
7208.31
7210.24
7211.97
7213.52
7214.87
7216.03
7217
7217.79
7218.4
7218.83
7219.09
7219.18
7219.11
7218.88
7218.5
7217.97
7217.31
7216.51
7215.58
7214.52
7213.35
7212.06
7210.67
7209.18
7207.6
7205.93
7204.17
7202.34
7200.43
7198.45
7196.42
7194.32
7192.17
7189.97
7187.73
7185.45
7183.13
7180.78
7178.4
7175.99
7173.56
7171.11
7168.64
7166.16
7163.67
7161.17
7158.66
7156.15
7153.64
7151.12
7148.61
7146.1
7143.59
7141.08
7138.58
7136.09
7133.61
7131.14
7128.68
7126.24
7123.8
7121.38
7118.98
7116.59
7114.21
7111.85
7109.5
7107.17
7104.86
7102.56
7100.27
7098.01
7095.76
7093.52
7091.31
7089.11
7086.93
7084.76
7082.62
7080.49
7078.38
7076.29
7074.21
7072.15
7070.11
7068.09
7066.09
7064.1
7062.13
7060.18
7058.25
7056.33
7054.43
7052.55
7050.68
7048.84
7047.01
7045.2
7043.4
7041.63
7039.87
7038.13
7036.41
7034.71
7033.02
7031.36
7029.71
7028.08
7026.47
7024.87
7023.3
7021.74
7020.21
7018.69
7017.19
7015.71
7014.25
7012.81
7011.39
7009.99
7008.6
7007.24
7005.9
7004.57
7003.26
7001.98
7000.71
6999.46
6998.23
6997.02
6995.82
6994.65
6993.5
6992.36
6991.24
6990.14
6989.06
6988
6986.95
6985.92
6984.91
6983.92
6982.95
6981.99
6981.05
6980.12
6979.21
6978.32
6977.44
6976.58
6975.74
6974.91
6974.09
6973.29
6972.51
6971.73
6970.98
6970.23
6969.51
6968.79
6968.09
6967.4
6966.72
6966.06
6965.4
6964.76
6964.14
6963.52
6962.92
6962.32
6961.74
6961.17
6960.61
6960.06
6959.52
6959
6958.48
6957.97
6957.47
6956.98
6956.5
6956.03
6955.56
6955.11
6954.67
6954.22
6953.8
6953.37
6952.96
6952.57
6952.17
6951.78
6951.4
6951.03
6950.66
6950.3
6949.95
6949.6
6949.25
6948.92
6948.59
6948.26
6947.94
6947.63
6947.33
6947.03
6946.73
6946.44
6946.16
6945.89
6945.61
6945.35
6945.09
6944.83
6944.58
6944.34
6944.1
6943.86
6943.64
6943.41
6943.21
6943
6942.8
6942.59
6942.39
6942.21
6941.94
6941.82
6941.69
6941.55
6941.4
6941.26
6941.12
6940.99
6940.85
6940.72
6940.59
6940.47
6940.34
6940.22
6940.1
6939.99
6939.87
6939.75
6939.64
6939.52
6939.41
6939.3
6939.18
6939.07
6938.96
6938.85
6938.74
6938.64
6938.53
6938.42
6938.31
6938.21
6938.1
6938
6937.9
6937.8
6937.69
6937.59
6937.49
6937.39
6937.29
6937.19
6937.1
6937
6936.9
6936.81
6936.71
6936.61
6936.52
6936.42
6936.33
6936.24
6936.14
6936.05
6935.95
6935.86
6935.77
6935.67
6935.58
6935.49
6935.39
6935.3
6935.21
6935.11
6935.02
6934.92
6934.83
6934.73
6934.64
6934.54
6934.44
6934.35
6934.25
6934.15
6934.05
6933.95
6933.85
6933.75
6933.64
6933.54
6933.44
6933.33
6933.23
6933.12
6933.01
6932.9
6932.79
6932.68
6932.57
6932.46
6932.34
6932.23
6932.09
6932.02
7066.06
7054.54
7045.49
7035.72
7027.23
7018.82
7010.41
7002.05
6993.61
6985.08
6976.44
6967.69
6958.83
6949.84
6940.76
6931.56
6922.26
6912.86
6903.37
6893.78
6884.11
6874.36
6864.54
6854.64
6844.67
6834.64
6824.53
6814.37
6804.15
6793.89
6783.57
6773.21
6762.82
6752.4
6741.94
6731.45
6720.94
6710.41
6699.87
6689.33
6678.77
6668.21
6657.65
6647.09
6636.57
6626.07
6615.61
6605.17
6594.78
6584.41
6574.11
6563.85
6553.64
6543.51
6533.45
6523.47
6513.57
6503.76
6494.06
6484.44
6474.93
6465.52
6456.23
6447.07
6438.01
6429.07
6420.24
6411.54
6402.95
6394.47
6386.13
6377.91
6369.79
6361.77
6353.85
6346.02
6338.33
6330.77
6323.3
6315.84
6308.41
6301.09
6293.86
6286.59
6279.27
6272.03
6264.93
6257.94
6251.01
6244.34
6238.43
6233.08
6228.72
6221.53
6209.31
6198.24
6198.11
6190.51
6184.61
6177.3
6170.23
6164.62
6159.93
6154.16
6148.71
6143.25
6137.94
6133.22
6128.74
6125.06
6121.41
6117.29
6112.17
6108.17
6103.48
6100.7
6100.82
6098.49
6096.89
6095.07
6093.87
6093.24
6093.35
6093.35
6093.9
6094.58
6095.93
6097.88
6100.07
6101.91
6104.68
6105.8
6109.56
6115.84
6120.78
6126.31
6132.16
6138.2
6144.51
6151.61
6159.41
6167.49
6176.08
6184.96
6194.23
6203.94
6214.07
6224.54
6235.39
6246.55
6258.02
6269.81
6281.89
6294.25
6306.85
6319.69
6332.74
6345.99
6359.44
6373.08
6386.88
6400.81
6414.86
6429.02
6443.26
6457.57
6471.94
6486.34
6500.76
6515.17
6529.55
6543.88
6558.15
6572.34
6586.44
6600.42
6614.27
6627.97
6641.51
6654.87
6668.03
6680.98
6693.72
6706.23
6718.49
6730.49
6742.23
6753.69
6764.88
6775.78
6786.39
6796.71
6806.73
6816.45
6825.86
6834.97
6843.78
6852.31
6860.54
6868.48
6876.14
6883.52
6890.64
6897.5
6904.11
6910.48
6916.62
6922.54
6928.25
6933.77
6939.11
6944.27
6949.26
6954.11
6958.81
6963.38
6967.81
6972.11
6976.28
6980.31
6984.21
6987.96
6991.55
6994.97
6998.22
7001.29
7004.18
7006.89
7009.39
7011.71
7013.83
7015.74
7017.47
7019
7020.33
7021.47
7022.42
7023.19
7023.77
7024.17
7024.41
7024.47
7024.36
7024.1
7023.68
7023.11
7022.41
7021.57
7020.6
7019.5
7018.29
7016.96
7015.53
7013.99
7012.37
7010.65
7008.86
7006.98
7005.03
7003.02
7000.95
6998.81
6996.63
6994.39
6992.12
6989.81
6987.46
6985.07
6982.66
6980.23
6977.77
6975.29
6972.8
6970.3
6967.78
6965.25
6962.72
6960.19
6957.65
6955.12
6952.59
6950.06
6947.53
6945.01
6942.5
6940
6937.51
6935.02
6932.55
6930.1
6927.65
6925.23
6922.82
6920.42
6918.04
6915.67
6913.32
6910.99
6908.67
6906.36
6904.08
6901.81
6899.55
6897.32
6895.1
6892.9
6890.71
6888.55
6886.4
6884.27
6882.16
6880.06
6877.99
6875.93
6873.88
6871.86
6869.85
6867.86
6865.89
6863.94
6862
6860.08
6858.18
6856.3
6854.43
6852.58
6850.75
6848.94
6847.14
6845.37
6843.61
6841.86
6840.14
6838.43
6836.74
6835.07
6833.42
6831.79
6830.18
6828.58
6827
6825.45
6823.91
6822.39
6820.89
6819.4
6817.94
6816.5
6815.07
6813.67
6812.28
6810.92
6809.57
6808.24
6806.94
6805.65
6804.38
6803.13
6801.89
6800.68
6799.49
6798.31
6797.16
6796.02
6794.9
6793.8
6792.72
6791.66
6790.61
6789.58
6788.57
6787.58
6786.61
6785.65
6784.71
6783.78
6782.87
6781.98
6781.11
6780.25
6779.4
6778.57
6777.76
6776.96
6776.17
6775.4
6774.65
6773.91
6773.18
6772.46
6771.76
6771.07
6770.4
6769.74
6769.08
6768.45
6767.82
6767.21
6766.6
6766.01
6765.43
6764.86
6764.3
6763.76
6763.22
6762.69
6762.17
6761.67
6761.17
6760.68
6760.2
6759.73
6759.27
6758.81
6758.37
6757.93
6757.52
6757.1
6756.69
6756.29
6755.9
6755.51
6755.13
6754.75
6754.39
6754.02
6753.67
6753.32
6752.98
6752.64
6752.31
6751.99
6751.67
6751.36
6751.06
6750.76
6750.47
6750.17
6749.89
6749.62
6749.34
6749.08
6748.82
6748.57
6748.31
6748.07
6747.82
6747.61
6747.38
6747.17
6746.93
6746.73
6746.43
6746.3
6746.16
6746.01
6745.85
6745.69
6745.53
6745.39
6745.24
6745.09
6744.95
6744.82
6744.68
6744.55
6744.42
6744.29
6744.16
6744.04
6743.91
6743.79
6743.67
6743.56
6743.44
6743.32
6743.21
6743.09
6742.98
6742.87
6742.76
6742.65
6742.54
6742.43
6742.32
6742.21
6742.11
6742
6741.9
6741.79
6741.69
6741.59
6741.49
6741.38
6741.28
6741.19
6741.09
6740.99
6740.89
6740.79
6740.7
6740.6
6740.51
6740.41
6740.32
6740.22
6740.13
6740.03
6739.94
6739.85
6739.75
6739.66
6739.57
6739.47
6739.38
6739.29
6739.2
6739.1
6739.01
6738.92
6738.82
6738.73
6738.63
6738.54
6738.44
6738.35
6738.25
6738.15
6738.06
6737.96
6737.86
6737.76
6737.66
6737.56
6737.45
6737.35
6737.25
6737.14
6737.04
6736.93
6736.82
6736.71
6736.6
6736.49
6736.38
6736.27
6736.16
6736.04
6735.9
6735.83
6870.75
6859.04
6850.15
6840.97
6832.48
6824.09
6815.55
6807.05
6798.47
6789.83
6781.11
6772.29
6763.35
6754.32
6745.18
6735.95
6726.62
6717.2
6707.67
6698.05
6688.34
6678.55
6668.69
6658.75
6648.74
6638.68
6628.54
6618.33
6608.07
6597.75
6587.39
6576.99
6566.55
6556.08
6545.56
6535.02
6524.44
6513.86
6503.27
6492.67
6482.06
6471.43
6460.81
6450.2
6439.61
6429.06
6418.52
6408.01
6397.55
6387.12
6376.73
6366.41
6356.14
6345.93
6335.8
6325.75
6315.77
6305.88
6296.09
6286.41
6276.82
6267.34
6257.96
6248.71
6239.57
6230.54
6221.61
6212.81
6204.13
6195.57
6187.13
6178.79
6170.55
6162.44
6154.41
6146.47
6138.65
6130.95
6123.31
6115.73
6108.29
6101.01
6093.77
6086.56
6079.45
6072.42
6065.4
6058.4
6051.42
6044.5
6037.66
6030.93
6024.46
6018.79
6013.82
6009.92
6002.35
5989.04
5979.11
5981.14
5973.65
5968.5
5961.34
5954.74
5950.11
5946.15
5941.2
5936.23
5931.69
5926.9
5922.47
5918.45
5915.51
5912.55
5909.18
5904.63
5901.41
5897.19
5895.37
5897.05
5895.75
5895.31
5894.62
5894.55
5895.19
5896.6
5897.8
5899.56
5901.3
5903.87
5906.85
5910.1
5913.69
5917.19
5921.44
5924.01
5929.33
5937.75
5944.45
5952.09
5959.54
5967.31
5975.82
5985.04
5994.46
6004.35
6014.52
6025.04
6035.98
6047.29
6058.88
6070.79
6082.99
6095.45
6108.18
6121.14
6134.32
6147.7
6161.27
6175.02
6188.93
6202.99
6217.17
6231.45
6245.82
6260.26
6274.76
6289.3
6303.85
6318.38
6332.89
6347.34
6361.73
6376.04
6390.26
6404.35
6418.31
6432.11
6445.75
6459.2
6472.45
6485.48
6498.3
6510.87
6523.2
6535.26
6547.06
6558.58
6569.82
6580.76
6591.42
6601.77
6611.83
6621.59
6631.05
6640.2
6649.05
6657.61
6665.88
6673.86
6681.57
6688.99
6696.15
6703.06
6709.72
6716.14
6722.33
6728.29
6734.05
6739.61
6744.99
6750.19
6755.23
6760.1
6764.82
6769.4
6773.85
6778.15
6782.32
6786.35
6790.24
6793.97
6797.55
6800.96
6804.21
6807.27
6810.15
6812.84
6815.33
6817.63
6819.73
6821.64
6823.34
6824.84
6826.15
6827.27
6828.19
6828.92
6829.47
6829.84
6830.03
6830.05
6829.91
6829.6
6829.14
6828.53
6827.78
6826.88
6825.86
6824.72
6823.45
6822.08
6820.6
6819.01
6817.34
6815.57
6813.73
6811.8
6809.81
6807.75
6805.62
6803.45
6801.22
6798.94
6796.62
6794.27
6791.88
6789.46
6787.01
6784.54
6782.05
6779.54
6777.01
6774.48
6771.93
6769.38
6766.82
6764.26
6761.7
6759.14
6756.59
6754.04
6751.5
6748.96
6746.44
6743.92
6741.41
6738.92
6736.44
6733.97
6731.52
6729.08
6726.66
6724.25
6721.86
6719.49
6717.14
6714.8
6712.47
6710.16
6707.88
6705.6
6703.35
6701.11
6698.89
6696.68
6694.5
6692.33
6690.18
6688.04
6685.93
6683.83
6681.75
6679.69
6677.64
6675.62
6673.61
6671.62
6669.64
6667.69
6665.75
6663.83
6661.92
6660.04
6658.17
6656.32
6654.48
6652.67
6650.87
6649.09
6647.32
6645.58
6643.85
6642.14
6640.45
6638.78
6637.12
6635.49
6633.87
6632.27
6630.69
6629.13
6627.59
6626.06
6624.56
6623.07
6621.61
6620.16
6618.73
6617.33
6615.94
6614.57
6613.22
6611.89
6610.58
6609.29
6608.02
6606.76
6605.53
6604.32
6603.12
6601.95
6600.79
6599.65
6598.53
6597.43
6596.35
6595.29
6594.24
6593.21
6592.2
6591.21
6590.24
6589.28
6588.34
6587.41
6586.51
6585.62
6584.74
6583.88
6583.04
6582.21
6581.4
6580.6
6579.81
6579.05
6578.29
6577.55
6576.82
6576.11
6575.41
6574.72
6574.05