/*--------------------------------*- C++ -*----------------------------------*\
| =========                 |                                                 |
| \\      /  F ield         | OpenFOAM: The Open Source CFD Toolbox           |
|  \\    /   O peration     | Version:  v2006                                 |
|   \\  /    A nd           | Website:  www.openfoam.com                      |
|    \\/     M anipulation  |                                                 |
\*---------------------------------------------------------------------------*/
FoamFile
{
    version     2.0;
    format      ascii;
    class       volScalarField;
    location    "4.2";
    object      p_rgh;
}
// * * * * * * * * * * * * * * * * * * * * * * * * * * * * * * * * * * * * * //

dimensions      [1 -1 -2 0 0 0 0];


internalField   nonuniform List<scalar> 
33000
(
8164.92
8144.74
8119.52
8110.47
8106.03
8099.01
8090.31
8081.6
8072.83
8063.99
8055.1
8046.15
8037.11
8027.99
8018.78
8009.52
8000.21
7990.83
7981.35
7971.79
7962.16
7952.45
7942.66
7932.79
7922.91
7913.01
7903.03
7892.96
7882.83
7872.65
7862.48
7852.3
7842.03
7831.72
7821.35
7810.97
7800.63
7790.3
7779.92
7769.51
7759.07
7748.64
7738.27
7727.92
7717.56
7707.2
7696.87
7686.57
7676.31
7666.12
7655.96
7645.85
7635.81
7625.82
7615.9
7606.14
7596.47
7586.85
7577.34
7567.93
7558.66
7549.51
7540.49
7531.6
7522.83
7514.22
7505.82
7497.6
7489.56
7481.68
7473.85
7466.05
7458.28
7450.67
7443.43
7436.9
7431.39
7426.16
7417.82
7404.93
7400.04
7391.32
7383.7
7375.97
7367.62
7359.59
7352.2
7344.72
7337.59
7330.41
7323.38
7316.45
7309.63
7303.14
7296.41
7289.8
7282.76
7275.48
7268.11
7260.96
7254.82
7248.47
7242.82
7237.02
7231.62
7226.48
7221.7
7217.08
7212.59
7208.42
7204.48
7200.77
7197.25
7194.17
7190.93
7188.3
7185.07
7182.72
7181.56
7179.95
7179.08
7178.43
7178.1
7178.33
7179.13
7180.19
7181.75
7183.67
7186.03
7188.84
7192.09
7195.74
7199.83
7204.34
7209.28
7214.64
7220.43
7226.65
7233.3
7240.39
7247.88
7255.82
7264.15
7272.87
7281.99
7291.49
7301.38
7311.6
7322.17
7333.05
7344.25
7355.79
7367.59
7379.65
7391.96
7404.5
7417.27
7430.26
7443.42
7456.75
7470.22
7483.86
7497.6
7511.44
7525.36
7539.36
7553.42
7567.5
7581.58
7595.66
7609.74
7623.78
7637.76
7651.66
7665.47
7679.17
7692.78
7706.24
7719.54
7732.67
7745.62
7758.38
7770.94
7783.28
7795.38
7807.24
7818.88
7830.25
7841.34
7852.15
7862.68
7872.93
7882.89
7892.56
7901.92
7910.98
7919.75
7928.21
7936.39
7944.28
7951.88
7959.2
7966.24
7973
7979.52
7985.79
7991.84
7997.67
8003.28
8008.69
8013.91
8018.97
8023.86
8028.61
8033.21
8037.69
8042.06
8046.33
8050.47
8054.47
8058.33
8062.05
8065.62
8069.03
8072.26
8075.32
8078.19
8080.88
8083.39
8085.72
8087.85
8089.79
8091.54
8093.11
8094.49
8095.69
8096.71
8097.54
8098.2
8098.69
8099.01
8099.16
8099.16
8098.99
8098.69
8098.24
8097.65
8096.92
8096.06
8095.09
8094
8092.8
8091.49
8090.08
8088.58
8086.98
8085.31
8083.56
8081.73
8079.83
8077.86
8075.84
8073.76
8071.63
8069.46
8067.23
8064.97
8062.68
8060.35
8058
8055.63
8053.23
8050.81
8048.37
8045.93
8043.47
8041
8038.53
8036.05
8033.58
8031.1
8028.62
8026.15
8023.69
8021.22
8018.77
8016.32
8013.87
8011.44
8009.02
8006.6
8004.2
8001.81
7999.43
7997.06
7994.71
7992.37
7990.04
7987.73
7985.44
7983.16
7980.89
7978.65
7976.42
7974.21
7972.02
7969.84
7967.69
7965.55
7963.42
7961.32
7959.23
7957.16
7955.11
7953.07
7951.05
7949.06
7947.07
7945.11
7943.16
7941.23
7939.32
7937.43
7935.55
7933.69
7931.85
7930.02
7928.22
7926.43
7924.66
7922.91
7921.17
7919.46
7917.76
7916.08
7914.42
7912.77
7911.15
7909.54
7907.96
7906.39
7904.84
7903.31
7901.8
7900.3
7898.83
7897.37
7895.94
7894.52
7893.12
7891.74
7890.38
7889.04
7887.72
7886.42
7885.14
7883.87
7882.62
7881.4
7880.19
7879
7877.82
7876.67
7875.53
7874.42
7873.32
7872.24
7871.18
7870.13
7869.1
7868.09
7867.1
7866.12
7865.17
7864.22
7863.3
7862.39
7861.49
7860.62
7859.75
7858.91
7858.08
7857.26
7856.46
7855.67
7854.9
7854.14
7853.39
7852.66
7851.94
7851.24
7850.54
7849.86
7849.2
7848.54
7847.9
7847.27
7846.65
7846.05
7845.45
7844.87
7844.29
7843.73
7843.18
7842.64
7842.11
7841.59
7841.07
7840.57
7840.08
7839.6
7839.12
7838.66
7838.2
7837.75
7837.31
7836.88
7836.46
7836.04
7835.63
7835.23
7834.84
7834.46
7834.08
7833.71
7833.34
7832.99
7832.64
7832.29
7831.96
7831.63
7831.3
7830.99
7830.67
7830.37
7830.07
7829.77
7829.48
7829.2
7828.92
7828.65
7828.38
7828.12
7827.87
7827.62
7827.37
7827.13
7826.9
7826.67
7826.45
7826.23
7826.02
7825.81
7825.61
7825.41
7825.21
7825.03
7824.84
7824.66
7824.49
7824.32
7824.15
7823.99
7823.84
7823.69
7823.54
7823.4
7823.27
7823.09
7823.01
7822.93
7822.83
7822.73
7822.63
7822.52
7822.41
7822.3
7822.2
7822.09
7821.98
7821.87
7821.76
7821.65
7821.55
7821.44
7821.33
7821.23
7821.12
7821.02
7820.92
7820.81
7820.71
7820.61
7820.51
7820.41
7820.31
7820.21
7820.11
7820.01
7819.91
7819.81
7819.72
7819.62
7819.52
7819.43
7819.33
7819.24
7819.14
7819.05
7818.95
7818.86
7818.76
7818.67
7818.57
7818.48
7818.39
7818.29
7818.2
7818.1
7818.01
7817.91
7817.82
7817.72
7817.62
7817.53
7817.43
7817.33
7817.23
7817.13
7817.03
7816.93
7816.83
7816.73
7816.63
7816.53
7816.42
7816.32
7816.21
7816.1
7816
7815.89
7815.78
7815.67
7815.56
7815.44
7815.33
7815.22
7815.11
7814.96
7814.9
8134.96
8109.74
8098.43
8101.12
8100.89
8095.83
8088.64
8080.68
8072.3
8063.68
8054.92
8046.05
8037.07
8028
8018.79
8009.51
8000.2
7990.89
7981.42
7971.87
7962.21
7952.4
7942.58
7932.75
7922.88
7913.08
7903.08
7892.92
7882.76
7872.6
7862.47
7852.33
7842.05
7831.62
7821.2
7810.84
7800.54
7790.29
7779.88
7769.45
7758.94
7748.48
7738.08
7727.78
7717.45
7707.09
7696.73
7686.36
7676.07
7665.9
7655.77
7645.53
7635.44
7625.48
7615.58
7605.87
7596.22
7586.58
7576.96
7567.48
7558.24
7549.18
7540.12
7531.18
7522.32
7513.64
7505.17
7496.88
7488.82
7480.78
7472.8
7464.92
7457.19
7449.63
7442.17
7434.82
7427.78
7421.14
7415.04
7409.68
7404.07
7393.53
7380.08
7375.06
7367.02
7359.94
7352.32
7345.31
7337.21
7329.74
7322.79
7315.77
7308.85
7302.06
7295.2
7288.46
7281.65
7274.39
7267.28
7260.08
7253.72
7247.4
7241.51
7237.06
7231.46
7226.56
7221.18
7216.58
7211.8
7207.72
7203.96
7200.3
7196.84
7193.57
7190.47
7187.7
7185.16
7182.86
7181.2
7178.63
7177.5
7177.81
7177.58
7178.01
7178.56
7179.46
7180.9
7182.98
7185.37
7188.27
7191.42
7195.05
7199.14
7203.69
7208.65
7214.02
7219.82
7226.01
7232.65
7239.74
7247.25
7255.21
7263.54
7272.25
7281.39
7290.92
7300.84
7311.07
7321.62
7332.52
7343.76
7355.32
7367.16
7379.23
7391.55
7404.1
7416.89
7429.91
7443.1
7456.43
7469.91
7483.59
7497.36
7511.22
7525.14
7539.16
7553.26
7567.36
7581.46
7595.54
7609.64
7623.73
7637.73
7651.64
7665.45
7679.17
7692.8
7706.29
7719.6
7732.73
7745.7
7758.48
7771.05
7783.41
7795.49
7807.37
7819.01
7830.41
7841.51
7852.31
7862.85
7873.09
7883.06
7892.72
7902.08
7911.16
7919.94
7928.39
7936.55
7944.43
7952.05
7959.38
7966.42
7973.18
7979.7
7985.98
7992.03
7997.87
8003.49
8008.89
8014.11
8019.17
8024.09
8028.84
8033.44
8037.93
8042.31
8046.58
8050.74
8054.76
8058.62
8062.34
8065.91
8069.33
8072.58
8075.64
8078.5
8081.2
8083.71
8086.03
8088.17
8090.12
8091.87
8093.42
8094.8
8095.99
8097.01
8097.85
8098.5
8098.98
8099.29
8099.45
8099.42
8099.26
8098.94
8098.49
8097.9
8097.16
8096.29
8095.31
8094.22
8093.01
8091.69
8090.28
8088.77
8087.16
8085.48
8083.71
8081.88
8079.98
8078
8075.97
8073.89
8071.76
8069.57
8067.34
8065.07
8062.77
8060.44
8058.09
8055.71
8053.3
8050.87
8048.43
8045.98
8043.53
8041.06
8038.58
8036.1
8033.62
8031.14
8028.66
8026.18
8023.71
8021.25
8018.79
8016.34
8013.89
8011.45
8009.03
8006.61
8004.21
8001.82
7999.44
7997.06
7994.71
7992.37
7990.04
7987.73
7985.44
7983.15
7980.89
7978.65
7976.42
7974.21
7972.02
7969.84
7967.68
7965.54
7963.42
7961.31
7959.22
7957.15
7955.1
7953.07
7951.05
7949.05
7947.07
7945.1
7943.15
7941.22
7939.31
7937.42
7935.54
7933.68
7931.83
7930.01
7928.2
7926.42
7924.64
7922.89
7921.16
7919.44
7917.74
7916.06
7914.4
7912.76
7911.13
7909.53
7907.94
7906.37
7904.82
7903.29
7901.77
7900.28
7898.81
7897.35
7895.91
7894.5
7893.1
7891.72
7890.36
7889.02
7887.7
7886.39
7885.11
7883.84
7882.6
7881.37
7880.16
7878.97
7877.8
7876.64
7875.51
7874.39
7873.29
7872.21
7871.15
7870.1
7869.07
7868.06
7867.07
7866.1
7865.14
7864.2
7863.27
7862.36
7861.47
7860.59
7859.73
7858.88
7858.05
7857.23
7856.43
7855.64
7854.87
7854.11
7853.37
7852.63
7851.92
7851.21
7850.52
7849.84
7849.17
7848.52
7847.88
7847.25
7846.63
7846.02
7845.43
7844.85
7844.27
7843.71
7843.16
7842.62
7842.09
7841.57
7841.05
7840.55
7840.06
7839.58
7839.1
7838.64
7838.18
7837.73
7837.29
7836.86
7836.44
7836.02
7835.62
7835.22
7834.82
7834.44
7834.06
7833.69
7833.33
7832.97
7832.62
7832.28
7831.94
7831.61
7831.29
7830.97
7830.66
7830.35
7830.05
7829.76
7829.47
7829.18
7828.9
7828.63
7828.37
7828.11
7827.85
7827.6
7827.36
7827.12
7826.89
7826.66
7826.43
7826.22
7826
7825.8
7825.59
7825.4
7825.2
7825.02
7824.83
7824.65
7824.47
7824.31
7824.14
7823.99
7823.83
7823.68
7823.47
7823.38
7823.29
7823.18
7823.08
7822.97
7822.87
7822.76
7822.65
7822.54
7822.43
7822.32
7822.21
7822.1
7821.99
7821.88
7821.77
7821.66
7821.55
7821.45
7821.34
7821.23
7821.13
7821.02
7820.92
7820.81
7820.71
7820.61
7820.51
7820.41
7820.31
7820.21
7820.11
7820.01
7819.91
7819.81
7819.72
7819.62
7819.52
7819.43
7819.33
7819.24
7819.14
7819.05
7818.95
7818.86
7818.77
7818.67
7818.58
7818.48
7818.39
7818.29
7818.2
7818.1
7818.01
7817.91
7817.82
7817.72
7817.62
7817.53
7817.43
7817.33
7817.23
7817.14
7817.04
7816.94
7816.84
7816.73
7816.63
7816.53
7816.42
7816.32
7816.21
7816.11
7816
7815.89
7815.78
7815.67
7815.56
7815.45
7815.33
7815.22
7815.11
7814.97
7814.9
8125.97
8103.69
8098.78
8097.87
8096.83
8092.47
8086.24
8079.04
8071.23
8063.02
8054.53
8045.84
8036.99
8028
8018.86
8009.6
8000.35
7990.98
7981.4
7971.85
7962.23
7952.65
7942.86
7932.86
7922.84
7912.88
7902.96
7893.1
7882.98
7872.68
7862.41
7852.23
7842.06
7831.74
7821.26
7810.69
7800.37
7790.19
7779.78
7769.32
7758.74
7748.21
7737.78
7727.39
7717.18
7706.84
7696.41
7685.97
7675.69
7665.55
7655.4
7645.06
7634.94
7624.95
7615.03
7605.39
7595.69
7585.85
7576.24
7566.79
7557.63
7548.54
7539.44
7530.45
7521.48
7512.73
7504.18
7495.86
7487.67
7479.49
7471.38
7463.46
7455.69
7448.07
7440.45
7432.93
7425.54
7418.29
7410.97
7403.92
7397.4
7391.23
7386.06
7379.57
7368.14
7354.49
7350.56
7342.89
7336.68
7329.64
7322.64
7314.94
7307.68
7301.2
7294.19
7287.44
7280.37
7273.55
7266.8
7260.67
7254.33
7248.01
7241.1
7235.24
7228.96
7223.97
7220.86
7216.03
7211.66
7207.37
7203.09
7199.26
7195.74
7192.75
7189.63
7186.93
7184.38
7182.27
7180.61
7179.25
7177.81
7177.08
7175.47
7175.53
7177.39
7178.4
7180.08
7181.83
7183.98
7186.72
7190.13
7193.85
7198.03
7202.46
7207.33
7212.62
7218.45
7224.71
7231.38
7238.51
7245.99
7253.91
7262.27
7271.04
7280.27
7289.83
7299.73
7309.93
7320.55
7331.51
7342.84
7354.44
7366.28
7378.33
7390.67
7403.32
7416.22
7429.25
7442.43
7455.78
7469.32
7483.04
7496.87
7510.76
7524.71
7538.77
7552.92
7567.08
7581.19
7595.33
7609.47
7623.61
7637.65
7651.57
7665.43
7679.2
7692.86
7706.38
7719.7
7732.89
7745.93
7758.73
7771.31
7783.64
7795.75
7807.65
7819.32
7830.74
7841.85
7852.68
7863.23
7873.45
7883.38
7893.04
7902.43
7911.54
7920.32
7928.78
7936.92
7944.8
7952.42
7959.77
7966.81
7973.57
7980.1
7986.4
7992.48
7998.31
8003.93
8009.34
8014.58
8019.68
8024.6
8029.35
8033.96
8038.48
8042.9
8047.18
8051.34
8055.36
8059.23
8062.95
8066.54
8069.98
8073.23
8076.3
8079.16
8081.85
8084.37
8086.71
8088.85
8090.79
8092.53
8094.07
8095.45
8096.65
8097.65
8098.48
8099.12
8099.58
8099.86
8099.99
8099.97
8099.79
8099.49
8099.02
8098.4
8097.66
8096.76
8095.76
8094.66
8093.44
8092.1
8090.66
8089.14
8087.53
8085.84
8084.06
8082.2
8080.26
8078.28
8076.25
8074.16
8072
8069.8
8067.55
8065.27
8062.96
8060.63
8058.27
8055.88
8053.46
8051.03
8048.57
8046.11
8043.64
8041.16
8038.69
8036.2
8033.72
8031.23
8028.73
8026.24
8023.77
8021.3
8018.84
8016.38
8013.92
8011.48
8009.05
8006.63
8004.23
8001.83
7999.45
7997.07
7994.72
7992.37
7990.04
7987.73
7985.44
7983.16
7980.9
7978.65
7976.42
7974.21
7972.01
7969.84
7967.68
7965.53
7963.41
7961.31
7959.22
7957.14
7955.09
7953.06
7951.04
7949.04
7947.05
7945.09
7943.14
7941.21
7939.29
7937.4
7935.52
7933.66
7931.81
7929.99
7928.18
7926.39
7924.62
7922.87
7921.13
7919.41
7917.71
7916.03
7914.37
7912.72
7911.1
7909.49
7907.9
7906.33
7904.78
7903.25
7901.73
7900.24
7898.76
7897.31
7895.87
7894.45
7893.05
7891.67
7890.31
7888.97
7887.65
7886.34
7885.06
7883.79
7882.54
7881.32
7880.11
7878.91
7877.74
7876.59
7875.45
7874.34
7873.24
7872.15
7871.09
7870.05
7869.02
7868.01
7867.02
7866.04
7865.08
7864.14
7863.21
7862.3
7861.41
7860.53
7859.67
7858.83
7857.99
7857.18
7856.38
7855.59
7854.82
7854.06
7853.31
7852.58
7851.87
7851.16
7850.47
7849.79
7849.13
7848.47
7847.83
7847.2
7846.58
7845.98
7845.38
7844.8
7844.23
7843.67
7843.12
7842.57
7842.04
7841.52
7841.01
7840.51
7840.02
7839.54
7839.06
7838.6
7838.14
7837.7
7837.26
7836.83
7836.4
7835.99
7835.58
7835.18
7834.79
7834.41
7834.03
7833.66
7833.3
7832.94
7832.6
7832.25
7831.92
7831.59
7831.26
7830.94
7830.63
7830.32
7830.02
7829.73
7829.44
7829.16
7828.88
7828.6
7828.34
7828.08
7827.83
7827.58
7827.33
7827.09
7826.86
7826.63
7826.41
7826.19
7825.98
7825.78
7825.57
7825.37
7825.18
7824.99
7824.81
7824.63
7824.46
7824.28
7824.12
7823.89
7823.78
7823.67
7823.54
7823.41
7823.29
7823.17
7823.06
7822.95
7822.84
7822.73
7822.62
7822.51
7822.4
7822.29
7822.18
7822.07
7821.97
7821.86
7821.75
7821.64
7821.54
7821.43
7821.33
7821.22
7821.12
7821.01
7820.91
7820.81
7820.7
7820.6
7820.5
7820.4
7820.3
7820.2
7820.1
7820
7819.91
7819.81
7819.71
7819.61
7819.52
7819.42
7819.33
7819.23
7819.14
7819.04
7818.95
7818.86
7818.76
7818.67
7818.57
7818.48
7818.39
7818.29
7818.2
7818.1
7818.01
7817.91
7817.82
7817.72
7817.63
7817.53
7817.43
7817.33
7817.24
7817.14
7817.04
7816.94
7816.84
7816.74
7816.63
7816.53
7816.43
7816.32
7816.22
7816.11
7816
7815.89
7815.79
7815.67
7815.56
7815.45
7815.34
7815.22
7815.11
7814.97
7814.9
8135.76
8119.81
8113.21
8104.5
8101.23
8093.92
8086.59
8079.11
8071.21
8063
8054.55
8045.91
8037.1
8028.15
8019.08
8009.9
8000.63
7991.23
7981.67
7972.05
7962.52
7952.9
7943.13
7933.22
7923.07
7912.88
7903.07
7893.24
7883.1
7872.87
7862.56
7852.29
7842.05
7831.7
7821.31
7810.84
7800.4
7790.04
7779.6
7769.13
7758.64
7748.09
7737.49
7727.02
7716.81
7706.43
7696.04
7685.66
7675.35
7665.12
7654.91
7644.66
7634.42
7624.39
7614.58
7604.56
7594.57
7584.88
7575.29
7565.84
7556.79
7547.57
7538.42
7529.39
7520.39
7511.47
7502.82
7494.42
7486.16
7477.82
7469.66
7461.76
7453.86
7446.02
7438.21
7430.54
7423.11
7415.74
7408.56
7401.37
7393.92
7386.38
7378.92
7371.9
7365.17
7359.14
7354.11
7347.73
7336.85
7324.56
7321.11
7313.92
7307.3
7300.03
7292.43
7285.33
7279.16
7272.35
7265.69
7258.9
7252.39
7246.44
7241.03
7235.83
7230.42
7224.82
7219.32
7214.08
7208.63
7204.66
7202.13
7198.26
7194.8
7191.28
7188.11
7185.4
7183.24
7181.07
7179.33
7177.67
7176.71
7176.26
7176.11
7175.73
7176.09
7175.25
7176.53
7179.87
7182.25
7185.32
7188.31
7191.78
7195.83
7200.49
7205.43
7210.8
7216.58
7222.79
7229.39
7236.58
7244.2
7252.15
7260.46
7269.25
7278.5
7288.13
7298.06
7308.31
7318.98
7330.02
7341.44
7353.06
7364.86
7377
7389.44
7402.13
7415.11
7428.21
7441.47
7454.86
7468.45
7482.19
7496.06
7510.08
7524.08
7538.21
7552.44
7566.66
7580.81
7595.02
7609.21
7623.37
7637.54
7651.53
7665.42
7679.24
7692.93
7706.52
7719.89
7733.11
7746.2
7759.04
7771.63
7783.98
7796.15
7808.08
7819.77
7831.23
7842.36
7853.2
7863.73
7873.95
7883.92
7893.59
7902.97
7912.1
7920.91
7929.39
7937.54
7945.39
7953.03
7960.39
7967.46
7974.24
7980.76
7987.09
7993.18
7999.03
8004.66
8010.1
8015.37
8020.5
8025.44
8030.21
8034.83
8039.36
8043.77
8048.09
8052.27
8056.3
8060.15
8063.89
8067.49
8070.95
8074.21
8077.28
8080.17
8082.87
8085.36
8087.67
8089.81
8091.78
8093.52
8095.08
8096.4
8097.58
8098.6
8099.41
8100.03
8100.45
8100.73
8100.86
8100.84
8100.64
8100.28
8099.78
8099.16
8098.37
8097.46
8096.45
8095.33
8094.08
8092.7
8091.25
8089.72
8088.09
8086.36
8084.55
8082.65
8080.7
8078.69
8076.65
8074.54
8072.37
8070.16
8067.89
8065.58
8063.25
8060.9
8058.53
8056.12
8053.68
8051.22
8048.78
8046.32
8043.82
8041.32
8038.83
8036.34
8033.85
8031.34
8028.83
8026.34
8023.86
8021.38
8018.9
8016.42
8013.96
8011.52
8009.09
8006.66
8004.24
8001.84
7999.45
7997.09
7994.73
7992.38
7990.05
7987.73
7985.44
7983.16
7980.9
7978.64
7976.42
7974.21
7972.01
7969.82
7967.66
7965.52
7963.4
7961.29
7959.2
7957.13
7955.07
7953.04
7951.01
7949.01
7947.03
7945.06
7943.11
7941.18
7939.26
7937.37
7935.48
7933.62
7931.78
7929.95
7928.14
7926.35
7924.58
7922.82
7921.09
7919.37
7917.67
7915.98
7914.32
7912.67
7911.05
7909.44
7907.85
7906.27
7904.72
7903.19
7901.67
7900.18
7898.7
7897.24
7895.8
7894.38
7892.98
7891.6
7890.24
7888.89
7887.57
7886.27
7884.98
7883.71
7882.46
7881.23
7880.02
7878.83
7877.66
7876.51
7875.37
7874.25
7873.15
7872.07
7871.01
7869.96
7868.93
7867.92
7866.93
7865.96
7865
7864.06
7863.13
7862.22
7861.33
7860.45
7859.59
7858.74
7857.91
7857.1
7856.3
7855.51
7854.74
7853.98
7853.24
7852.51
7851.79
7851.09
7850.4
7849.72
7849.05
7848.4
7847.76
7847.13
7846.51
7845.91
7845.32
7844.73
7844.16
7843.6
7843.05
7842.51
7841.98
7841.46
7840.95
7840.45
7839.96
7839.48
7839
7838.54
7838.09
7837.64
7837.2
7836.77
7836.35
7835.93
7835.53
7835.13
7834.74
7834.36
7833.98
7833.62
7833.26
7832.9
7832.55
7832.21
7831.87
7831.54
7831.22
7830.9
7830.59
7830.28
7829.98
7829.69
7829.39
7829.12
7828.84
7828.57
7828.3
7828.04
7827.78
7827.54
7827.29
7827.05
7826.82
7826.59
7826.37
7826.15
7825.94
7825.72
7825.53
7825.34
7825.16
7824.97
7824.77
7824.6
7824.35
7824.24
7824.12
7823.99
7823.86
7823.73
7823.61
7823.48
7823.36
7823.24
7823.12
7823
7822.88
7822.77
7822.65
7822.54
7822.43
7822.32
7822.2
7822.09
7821.98
7821.87
7821.76
7821.65
7821.54
7821.43
7821.33
7821.22
7821.12
7821.01
7820.91
7820.8
7820.7
7820.6
7820.5
7820.4
7820.3
7820.2
7820.1
7820
7819.91
7819.81
7819.71
7819.62
7819.52
7819.42
7819.33
7819.23
7819.14
7819.05
7818.95
7818.86
7818.76
7818.67
7818.58
7818.48
7818.39
7818.29
7818.2
7818.11
7818.01
7817.92
7817.82
7817.73
7817.63
7817.53
7817.44
7817.34
7817.24
7817.14
7817.04
7816.94
7816.84
7816.74
7816.64
7816.54
7816.43
7816.33
7816.22
7816.12
7816.01
7815.9
7815.79
7815.68
7815.57
7815.46
7815.35
7815.23
7815.12
7814.98
7814.91
8142.35
8131.52
8121.83
8112.06
8104.49
8096.21
8088.09
8080.03
8071.82
8063.45
8054.92
8046.24
8037.42
8028.47
8019.4
8010.22
8000.94
7991.56
7982.07
7972.49
7962.87
7953.15
7943.36
7933.48
7923.47
7913.35
7903.36
7893.35
7883.18
7872.95
7862.67
7852.35
7841.99
7831.6
7821.2
7810.75
7800.29
7789.81
7779.32
7768.82
7758.31
7747.79
7737.27
7726.74
7716.2
7705.78
7695.43
7685.07
7674.72
7664.41
7654.16
7643.91
7633.73
7623.7
7613.74
7603.81
7593.88
7583.84
7574.04
7564.5
7555.44
7546.22
7537
7527.92
7518.99
7510.14
7501.37
7492.59
7483.99
7475.64
7467.56
7459.61
7451.59
7443.66
7435.81
7427.9
7420.2
7412.76
7405.72
7398.45
7390.98
7383.42
7375.86
7368.32
7361.04
7354.01
7347.34
7341.18
7335.53
7330.86
7324.15
7312.76
7301
7299.15
7291.53
7285.08
7277.73
7270.61
7264.01
7258.46
7252.04
7245.97
7239.64
7233.93
7228.68
7223.92
7219.71
7214.65
7210.39
7204.54
7199.91
7194.9
7191.28
7190.14
7186.85
7184.25
7181.49
7179.22
7177.42
7176.37
7175.33
7174.73
7174.26
7174.43
7175.05
7176.04
7176.71
7178.31
7178.61
7181.05
7185.88
7189.41
7193.88
7198.15
7202.98
7208
7213.65
7220.01
7226.72
7233.99
7241.67
7249.67
7258.03
7266.82
7276.07
7285.73
7295.86
7306.27
7316.91
7327.98
7339.47
7351.2
7363.04
7375.28
7387.79
7400.63
7413.66
7426.82
7440.18
7453.7
7467.31
7481.11
7495.05
7509.1
7523.34
7537.58
7551.84
7566.08
7580.31
7594.61
7608.88
7623.14
7637.4
7651.5
7665.42
7679.29
7693.05
7706.68
7720.2
7733.5
7746.57
7759.41
7772.05
7784.5
7796.7
7808.72
7820.47
7831.9
7843.04
7853.87
7864.43
7874.71
7884.7
7894.37
7903.75
7912.89
7921.74
7930.24
7938.43
7946.29
7953.91
7961.26
7968.41
7975.24
7981.81
7988.07
7994.16
8000.04
8005.72
8011.27
8016.59
8021.71
8026.64
8031.42
8036.1
8040.65
8045.07
8049.37
8053.58
8057.59
8061.46
8065.21
8068.82
8072.29
8075.51
8078.56
8081.46
8084.21
8086.75
8089.02
8091.13
8093.06
8094.84
8096.36
8097.7
8098.86
8099.86
8100.68
8101.24
8101.65
8101.92
8102.01
8101.98
8101.76
8101.38
8100.81
8100.14
8099.34
8098.41
8097.37
8096.23
8094.94
8093.52
8092.02
8090.44
8088.81
8087.05
8085.18
8083.27
8081.3
8079.26
8077.19
8075.06
8072.86
8070.62
8068.34
8065.99
8063.64
8061.26
8058.88
8056.43
8053.97
8051.51
8049.03
8046.57
8044.06
8041.53
8039.02
8036.52
8034
8031.48
8028.97
8026.47
8023.97
8021.45
8018.96
8016.48
8014.02
8011.58
8009.13
8006.68
8004.26
8001.85
7999.46
7997.09
7994.74
7992.39
7990.06
7987.74
7985.44
7983.15
7980.89
7978.63
7976.41
7974.2
7971.99
7969.81
7967.65
7965.51
7963.38
7961.26
7959.17
7957.1
7955.05
7953.01
7950.98
7948.98
7946.99
7945.02
7943.07
7941.14
7939.23
7937.32
7935.44
7933.58
7931.73
7929.91
7928.09
7926.3
7924.52
7922.76
7921.03
7919.31
7917.61
7915.92
7914.25
7912.6
7910.97
7909.36
7907.77
7906.2
7904.64
7903.1
7901.59
7900.09
7898.61
7897.15
7895.71
7894.29
7892.88
7891.5
7890.14
7888.79
7887.47
7886.16
7884.87
7883.61
7882.36
7881.13
7879.92
7878.72
7877.55
7876.4
7875.26
7874.14
7873.04
7871.96
7870.9
7869.85
7868.82
7867.81
7866.82
7865.85
7864.89
7863.94
7863.02
7862.11
7861.22
7860.34
7859.48
7858.64
7857.81
7856.99
7856.19
7855.4
7854.63
7853.88
7853.13
7852.4
7851.69
7850.99
7850.3
7849.62
7848.95
7848.3
7847.66
7847.04
7846.42
7845.82
7845.22
7844.64
7844.07
7843.51
7842.96
7842.42
7841.9
7841.37
7840.87
7840.37
7839.88
7839.4
7838.93
7838.46
7838.01
7837.56
7837.12
7836.7
7836.27
7835.86
7835.46
7835.07
7834.68
7834.3
7833.93
7833.56
7833.2
7832.84
7832.49
7832.15
7831.82
7831.49
7831.16
7830.84
7830.53
7830.23
7829.93
7829.63
7829.34
7829.06
7828.78
7828.51
7828.25
7827.99
7827.73
7827.48
7827.24
7827
7826.76
7826.54
7826.31
7826.11
7825.9
7825.7
7825.49
7825.29
7825.11
7824.84
7824.71
7824.59
7824.44
7824.29
7824.14
7824.01
7823.87
7823.74
7823.61
7823.48
7823.36
7823.24
7823.11
7823
7822.88
7822.76
7822.64
7822.53
7822.42
7822.3
7822.19
7822.08
7821.97
7821.86
7821.75
7821.64
7821.53
7821.42
7821.32
7821.21
7821.11
7821
7820.9
7820.8
7820.69
7820.59
7820.49
7820.39
7820.29
7820.19
7820.09
7820
7819.9
7819.8
7819.7
7819.61
7819.51
7819.42
7819.32
7819.23
7819.14
7819.04
7818.95
7818.85
7818.76
7818.67
7818.57
7818.48
7818.39
7818.29
7818.2
7818.11
7818.01
7817.92
7817.82
7817.73
7817.63
7817.54
7817.44
7817.34
7817.25
7817.15
7817.05
7816.95
7816.85
7816.75
7816.65
7816.54
7816.44
7816.34
7816.23
7816.13
7816.02
7815.91
7815.8
7815.69
7815.58
7815.47
7815.36
7815.24
7815.13
7814.99
7814.92
8145.14
8133.66
8124.63
8114.86
8106.37
8097.96
8089.55
8081.18
8072.73
8064.2
8055.57
8046.81
8037.94
8028.96
8019.86
8010.67
8001.37
7991.97
7982.47
7972.88
7963.21
7953.46
7943.64
7933.74
7923.76
7913.72
7903.62
7893.47
7883.26
7872.99
7862.67
7852.28
7841.83
7831.4
7821.02
7810.54
7800.02
7789.42
7778.82
7768.3
7757.85
7747.3
7736.74
7726.09
7715.16
7704.29
7694.45
7684.25
7673.87
7663.51
7653.18
7642.88
7632.68
7622.6
7612.54
7602.56
7592.66
7582.83
7573.08
7563.37
7553.62
7544.17
7535.08
7526.14
7517.11
7508.17
7499.34
7490.62
7481.94
7473.25
7464.8
7456.88
7448.87
7440.86
7432.94
7425.05
7417.16
7409.5
7402.28
7394.87
7387.27
7379.93
7372.91
7365.66
7358.34
7351.09
7343.93
7336.81
7329.87
7323.21
7317.46
7312.16
7307.8
7300.6
7288.27
7277.13
7277
7269.52
7263.7
7256.4
7249.32
7243.69
7238.97
7233.23
7227.8
7222.31
7216.93
7212.18
7207.81
7204.15
7200.5
7196.38
7191.24
7187.18
7182.45
7179.73
7179.89
7177.51
7175.82
7174.01
7172.93
7172.32
7172.43
7172.43
7172.98
7173.56
7174.81
7176.76
7179.05
7180.94
7183.71
7184.82
7188.47
7194.81
7199.86
7205.38
7211.22
7217.15
7223.39
7230.58
7238.49
7246.57
7255.15
7263.93
7273.08
7282.87
7293.08
7303.56
7314.37
7325.54
7337.08
7348.86
7360.86
7373.12
7385.91
7398.77
7411.81
7425
7438.44
7452.16
7465.96
7479.87
7493.88
7508.07
7522.34
7536.65
7551.02
7565.38
7579.79
7594.23
7608.59
7622.92
7637.22
7651.42
7665.5
7679.4
7693.28
7707.06
7720.59
7733.94
7747.05
7759.96
7772.76
7785.24
7797.52
7809.57
7821.3
7832.76
7843.86
7854.71
7865.45
7875.78
7885.8
7895.51
7904.86
7913.93
7922.81
7931.38
7939.62
7947.54
7955.14
7962.57
7969.71
7976.57
7983.18
7989.48
7995.59
8001.51
8007.29
8012.85
8018.19
8023.33
8028.24
8033.08
8037.84
8042.46
8046.89
8051.15
8055.28
8059.31
8063.23
8067.03
8070.62
8073.98
8077.22
8080.29
8083.22
8085.97
8088.48
8090.79
8092.84
8094.74
8096.46
8097.99
8099.38
8100.55
8101.51
8102.28
8102.83
8103.18
8103.43
8103.54
8103.44
8103.13
8102.7
8102.14
8101.43
8100.61
8099.68
8098.59
8097.37
8096
8094.55
8093.02
8091.4
8089.72
8087.94
8086.03
8084.07
8082.06
8080.03
8077.9
8075.7
8073.45
8071.2
8068.89
8066.53
8064.13
8061.74
8059.31
8056.83
8054.35
8051.86
8049.38
8046.87
8044.34
8041.79
8039.25
8036.72
8034.2
8031.66
8029.14
8026.62
8024.1
8021.57
8019.06
8016.58
8014.12
8011.64
8009.17
8006.73
8004.31
8001.89
7999.5
7997.13
7994.76
7992.4
7990.06
7987.75
7985.45
7983.17
7980.89
7978.63
7976.41
7974.19
7971.98
7969.8
7967.63
7965.49
7963.37
7961.24
7959.15
7957.07
7955.02
7952.98
7950.95
7948.94
7946.96
7944.99
7943.03
7941.09
7939.18
7937.28
7935.39
7933.52
7931.68
7929.85
7928.04
7926.24
7924.46
7922.7
7920.96
7919.24
7917.53
7915.84
7914.17
7912.52
7910.89
7909.27
7907.68
7906.1
7904.54
7903
7901.48
7899.99
7898.5
7897.04
7895.6
7894.17
7892.77
7891.38
7890.02
7888.67
7887.34
7886.03
7884.74
7883.48
7882.23
7880.99
7879.78
7878.58
7877.41
7876.26
7875.12
7874
7872.9
7871.82
7870.76
7869.71
7868.68
7867.67
7866.68
7865.71
7864.75
7863.81
7862.88
7861.97
7861.08
7860.2
7859.34
7858.5
7857.67
7856.86
7856.06
7855.27
7854.5
7853.75
7853
7852.28
7851.56
7850.86
7850.17
7849.5
7848.83
7848.18
7847.55
7846.92
7846.3
7845.7
7845.11
7844.53
7843.96
7843.4
7842.85
7842.32
7841.79
7841.27
7840.76
7840.27
7839.78
7839.3
7838.83
7838.37
7837.91
7837.47
7837.03
7836.62
7836.2
7835.79
7835.39
7835
7834.61
7834.23
7833.85
7833.49
7833.12
7832.77
7832.42
7832.08
7831.74
7831.41
7831.09
7830.77
7830.46
7830.16
7829.85
7829.56
7829.27
7828.99
7828.72
7828.44
7828.18
7827.92
7827.67
7827.41
7827.17
7826.92
7826.7
7826.48
7826.27
7826.03
7825.83
7825.53
7825.4
7825.27
7825.12
7824.95
7824.79
7824.64
7824.49
7824.35
7824.2
7824.06
7823.92
7823.78
7823.65
7823.52
7823.39
7823.26
7823.14
7823.02
7822.89
7822.78
7822.66
7822.54
7822.42
7822.31
7822.19
7822.08
7821.97
7821.86
7821.74
7821.63
7821.53
7821.42
7821.31
7821.21
7821.1
7821
7820.89
7820.79
7820.69
7820.59
7820.48
7820.38
7820.29
7820.19
7820.09
7819.99
7819.89
7819.8
7819.7
7819.61
7819.51
7819.42
7819.32
7819.23
7819.13
7819.04
7818.95
7818.85
7818.76
7818.67
7818.58
7818.48
7818.39
7818.3
7818.2
7818.11
7818.02
7817.92
7817.83
7817.73
7817.64
7817.54
7817.45
7817.35
7817.25
7817.16
7817.06
7816.96
7816.86
7816.76
7816.66
7816.56
7816.45
7816.35
7816.24
7816.14
7816.03
7815.92
7815.81
7815.71
7815.59
7815.48
7815.37
7815.26
7815.14
7815
7814.93
8145.93
8134.33
8125.46
8116.29
8107.8
8099.4
8090.86
8082.36
8073.78
8065.13
8056.42
8047.6
8038.66
8029.62
8020.47
8011.21
8001.88
7992.5
7982.98
7973.36
7963.64
7953.85
7943.99
7934
7923.95
7913.89
7903.83
7893.63
7883.37
7873.05
7862.64
7851.94
7841.18
7831.04
7820.82
7810.3
7799.6
7788.44
7777.32
7767.37
7757.29
7746.72
7735.96
7724.78
7713.85
7703.3
7692.76
7682.88
7672.8
7662.41
7652.03
7641.7
7631.43
7621.22
7611.08
7601.03
7591.07
7581.18
7571.34
7561.38
7551.59
7542.1
7532.86
7523.97
7514.87
7505.83
7496.91
7488.1
7479.33
7470.48
7461.92
7453.58
7445.69
7437.72
7429.7
7421.76
7413.94
7406.21
7398.38
7390.57
7383.13
7375.97
7369.02
7361.82
7354.67
7347.39
7340.28
7333.53
7326.7
7319.78
7312.94
7306.15
7299.62
7293.96
7288.95
7285
7277.57
7264.33
7254.4
7256.4
7248.86
7243.69
7236.61
7230.03
7225.4
7221.43
7216.39
7211.3
7206.86
7202.19
7197.76
7193.74
7190.75
7187.58
7184.08
7179.65
7176.65
7172.45
7170.63
7172.29
7170.88
7170.39
7169.87
7169.83
7170.47
7171.87
7172.93
7174.6
7176.34
7178.91
7181.91
7185.31
7188.94
7192.46
7196.71
7199.28
7204.6
7212.97
7219.53
7227.25
7234.81
7242.58
7251.1
7260.31
7269.72
7279.49
7289.49
7300.17
7311.24
7322.54
7334.12
7345.92
7358.09
7370.73
7383.46
7396.42
7409.58
7422.84
7436.32
7450.27
7464.21
7478.27
7492.45
7506.73
7521.09
7535.47
7549.94
7564.56
7579.13
7593.67
7608.17
7622.62
7637
7651.31
7665.49
7679.56
7693.58
7707.39
7721.03
7734.47
7747.64
7760.6
7773.54
7786.14
7798.47
7810.53
7822.33
7833.85
7844.98
7855.85
7866.62
7877.03
7887.1
7896.86
7906.3
7915.33
7924.16
7932.8
7941.14
7949.14
7956.84
7964.23
7971.3
7978.25
7984.97
7991.38
7997.48
8003.46
8009.29
8014.88
8020.27
8025.44
8030.37
8035.26
8040.07
8044.68
8049.12
8053.43
8057.57
8061.53
8065.46
8069.24
8072.82
8076.24
8079.39
8082.49
8085.41
8088.12
8090.62
8092.92
8095.02
8096.88
8098.52
8100.09
8101.43
8102.55
8103.48
8104.21
8104.75
8105.08
8105.3
8105.33
8105.19
8104.86
8104.37
8103.74
8103.02
8102.16
8101.15
8100
8098.73
8097.31
8095.81
8094.25
8092.61
8090.86
8089.01
8087.08
8085.03
8083.01
8080.91
8078.73
8076.5
8074.19
8071.88
8069.55
8067.17
8064.74
8062.3
8059.83
8057.3
8054.8
8052.29
8049.77
8047.22
8044.67
8042.11
8039.54
8036.96
8034.42
8031.88
8029.33
8026.79
8024.25
8021.71
8019.19
8016.7
8014.21
8011.73
8009.24
8006.8
8004.37
8001.95
7999.55
7997.16
7994.78
7992.42
7990.08
7987.76
7985.46
7983.17
7980.9
7978.64
7976.4
7974.18
7971.98
7969.78
7967.62
7965.47
7963.34
7961.22
7959.12
7957.05
7954.99
7952.94
7950.92
7948.91
7946.92
7944.94
7942.99
7941.04
7939.12
7937.22
7935.34
7933.47
7931.62
7929.78
7927.97
7926.17
7924.39
7922.62
7920.88
7919.15
7917.44
7915.74
7914.07
7912.42
7910.78
7909.17
7907.57
7905.99
7904.43
7902.88
7901.36
7899.86
7898.37
7896.91
7895.46
7894.03
7892.63
7891.24
7889.87
7888.52
7887.19
7885.88
7884.59
7883.31
7882.06
7880.83
7879.62
7878.42
7877.25
7876.09
7874.95
7873.83
7872.73
7871.65
7870.59
7869.54
7868.51
7867.5
7866.51
7865.54
7864.58
7863.64
7862.71
7861.81
7860.91
7860.04
7859.18
7858.34
7857.51
7856.7
7855.9
7855.11
7854.34
7853.59
7852.85
7852.12
7851.41
7850.71
7850.02
7849.35
7848.69
7848.04
7847.4
7846.78
7846.16
7845.56