/*--------------------------------*- C++ -*----------------------------------*\
| =========                 |                                                 |
| \\      /  F ield         | OpenFOAM: The Open Source CFD Toolbox           |
|  \\    /   O peration     | Version:  v2006                                 |
|   \\  /    A nd           | Website:  www.openfoam.com                      |
|    \\/     M anipulation  |                                                 |
\*---------------------------------------------------------------------------*/
FoamFile
{
    version     2.0;
    format      ascii;
    class       surfaceScalarField;
    location    "4.2";
    object      phi;
}
// * * * * * * * * * * * * * * * * * * * * * * * * * * * * * * * * * * * * * //

dimensions      [0 3 -1 0 0 0 0];
oriented        oriented;


internalField   nonuniform List<scalar> 
65390
(
7.40542e-05
-4.14549e-05
0.00010263
-2.8576e-05
9.69002e-05
5.7297e-06
8.03526e-05
1.65475e-05
6.47723e-05
1.55801e-05
5.34078e-05
1.13643e-05
4.53344e-05
8.07321e-06
3.9248e-05
6.08622e-06
3.43708e-05
4.87699e-06
3.03236e-05
4.04692e-06
2.69138e-05
3.40956e-06
2.40124e-05
2.90111e-06
2.14489e-05
2.56318e-06
1.90494e-05
2.39917e-06
1.65471e-05
2.50189e-06
1.39274e-05
2.61934e-06
1.14097e-05
2.51727e-06
9.29519e-06
2.1141e-06
7.5041e-06
1.79067e-06
5.77693e-06
1.72676e-06
3.91483e-06
1.86171e-06
1.83622e-06
2.07826e-06
-3.64895e-07
2.2008e-06
-2.64029e-06
2.27512e-06
-4.92026e-06
2.27974e-06
-6.96832e-06
2.04787e-06
-8.74436e-06
1.7759e-06
-1.04285e-05
1.68408e-06
-1.23178e-05
1.88923e-06
-1.44352e-05
2.11731e-06
-1.65097e-05
2.07457e-06
-1.8154e-05
1.64431e-06
-1.95804e-05
1.4265e-06
-2.11675e-05
1.5872e-06
-2.31619e-05
1.9945e-06
-2.54529e-05
2.29118e-06
-2.76236e-05
2.17092e-06
-2.9267e-05
1.6436e-06
-3.05315e-05
1.26468e-06
-3.17864e-05
1.25519e-06
-3.33789e-05
1.5927e-06
-3.52731e-05
1.89448e-06
-3.71678e-05
1.89492e-06
-3.8882e-05
1.7144e-06
-4.03044e-05
1.42263e-06
-4.15325e-05
1.22832e-06
-4.27969e-05
1.26465e-06
-4.41615e-05
1.36474e-06
-4.55747e-05
1.41343e-06
-4.68763e-05
1.30175e-06
-4.80008e-05
1.12462e-06
-4.91085e-05
1.10771e-06
-5.04401e-05
1.33161e-06
-5.1967e-05
1.52681e-06
-5.35355e-05
1.56831e-06
-5.49017e-05
1.36599e-06
-5.59087e-05
1.00657e-06
-5.67386e-05
8.29423e-07
-5.76687e-05
9.29576e-07
-5.8666e-05
9.96602e-07
-5.94873e-05
8.20529e-07
-5.98408e-05
3.52588e-07
-5.96023e-05
-2.39514e-07
-5.89441e-05
-6.59198e-07
-5.8105e-05
-8.40312e-07
-5.71268e-05
-9.7936e-07
-5.57952e-05
-1.33284e-06
-5.38327e-05
-1.96379e-06
-5.10961e-05
-2.73783e-06
-4.75584e-05
-3.53897e-06
-4.33563e-05
-4.20336e-06
-3.87027e-05
-4.65482e-06
-3.39852e-05
-4.71865e-06
-2.98325e-05
-4.15378e-06
-2.67942e-05
-3.03924e-06
-2.52527e-05
-1.54248e-06
-2.47684e-05
-4.85106e-07
-2.44126e-05
-3.56409e-07
-2.30793e-05
-1.33372e-06
-2.17111e-05
-1.36826e-06
-2.20512e-05
3.4001e-07
-2.23533e-05
3.01982e-07
-2.28788e-05
5.25452e-07
-2.33622e-05
4.83343e-07
-2.41293e-05
7.67125e-07
-2.43195e-05
1.90129e-07
-2.43178e-05
-1.73642e-09
-2.44204e-05
1.02525e-07
-2.4441e-05
2.05195e-08
-2.42377e-05
-2.03268e-07
-2.38961e-05
-3.41533e-07
-2.31576e-05
-7.38454e-07
-2.19574e-05
-1.20014e-06
-2.02145e-05
-1.7428e-06
-1.7638e-05
-2.5764e-06
-1.45313e-05
-3.10661e-06
-1.08875e-05
-3.64368e-06
-7.36979e-06
-3.51761e-06
-4.50882e-06
-2.86086e-06
-3.3181e-06
-1.19061e-06
-3.41239e-06
9.43904e-08
-4.12963e-06
7.17344e-07
-4.96147e-06
8.31948e-07
-5.69523e-06
7.33867e-07
-6.66564e-06
9.70521e-07
-7.18794e-06
5.22413e-07
-7.44313e-06
2.55286e-07
-7.76164e-06
3.18603e-07
-8.21426e-06
4.52711e-07
-8.62519e-06
4.11001e-07
-9.00296e-06
3.77839e-07
-9.34283e-06
3.39915e-07
-9.51069e-06
1.67901e-07
-9.47666e-06
-3.4003e-08
-9.1323e-06
-3.44329e-07
-8.54676e-06
-5.85529e-07
-7.70486e-06
-8.41887e-07
-7.27004e-06
-4.34804e-07
-7.44241e-06
1.72365e-07
-7.82299e-06
3.80575e-07
-8.29568e-06
4.72687e-07
-8.71224e-06
4.16546e-07
-9.29915e-06
5.86897e-07
-9.79456e-06
4.95391e-07
-1.01583e-05
3.63718e-07
-1.05483e-05
3.89924e-07
-1.09197e-05
3.71392e-07
-1.1293e-05
3.73262e-07
-1.16799e-05
3.86823e-07
-1.20365e-05
3.5665e-07
-1.23727e-05
3.36088e-07
-1.27066e-05
3.33857e-07
-1.30252e-05
3.18568e-07
-1.33385e-05
3.1325e-07
-1.36479e-05
3.09336e-07
-1.39559e-05
3.07961e-07
-1.42563e-05
3.00301e-07
-1.45483e-05
2.92021e-07
-1.4835e-05
2.86613e-07
-1.51107e-05
2.75704e-07
-1.53782e-05
2.67365e-07
-1.56313e-05
2.53107e-07
-1.58738e-05
2.42452e-07
-1.61089e-05
2.35098e-07
-1.63332e-05
2.24261e-07
-1.65438e-05
2.10533e-07
-1.67379e-05
1.94087e-07
-1.69215e-05
1.83566e-07
-1.70965e-05
1.75035e-07
-1.72621e-05
1.65556e-07
-1.74153e-05
1.53165e-07
-1.75512e-05
1.35896e-07
-1.76725e-05
1.21261e-07
-1.77839e-05
1.11377e-07
-1.78861e-05
1.02171e-07
-1.79791e-05
9.30185e-08
-1.80588e-05
7.96303e-08
-1.81227e-05
6.38211e-08
-1.81743e-05
5.15967e-08
-1.82176e-05
4.32244e-08
-1.82522e-05
3.46386e-08
-1.8272e-05
1.97251e-08
-1.82773e-05
5.27419e-09
-1.82717e-05
-5.70553e-09
-1.82579e-05
-1.38458e-08
-1.82328e-05
-2.51553e-08
-1.81911e-05
-4.17583e-08
-1.81352e-05
-5.59869e-08
-1.80696e-05
-6.56225e-08
-1.79958e-05
-7.38934e-08
-1.7909e-05
-8.68847e-08
-1.78043e-05
-1.04784e-07
-1.76847e-05
-1.19707e-07
-1.75545e-05
-1.30249e-07
-1.74152e-05
-1.39356e-07
-1.72635e-05
-1.51762e-07
-1.70954e-05
-1.6818e-07
-1.69103e-05
-1.85204e-07
-1.67124e-05
-1.98039e-07
-1.65029e-05
-2.09543e-07
-1.62805e-05
-2.22523e-07
-1.60426e-05
-2.38065e-07
-1.57873e-05
-2.55312e-07
-1.55168e-05
-2.70625e-07
-1.52366e-05
-2.80342e-07
-1.49442e-05
-2.92415e-07
-1.46318e-05
-3.12556e-07
-1.42966e-05
-3.35212e-07
-1.39468e-05
-3.49864e-07
-1.35859e-05
-3.60928e-07
-1.3209e-05
-3.76894e-07
-1.28158e-05
-3.9323e-07
-1.2405e-05
-4.10705e-07
-1.19778e-05
-4.27147e-07
-1.15367e-05
-4.41124e-07
-1.10773e-05
-4.59288e-07
-1.06014e-05
-4.75918e-07
-1.0114e-05
-4.87312e-07
-9.61524e-06
-4.98696e-07
-9.10337e-06
-5.11814e-07
-8.57516e-06
-5.28163e-07
-8.03062e-06
-5.44502e-07
-7.47796e-06
-5.52626e-07
-6.92542e-06
-5.52521e-07
-6.37171e-06
-5.53696e-07
-5.81377e-06
-5.57936e-07
-5.25019e-06
-5.63589e-07
-4.68127e-06
-5.68929e-07
-4.11489e-06
-5.66381e-07
-3.5587e-06
-5.56208e-07
-3.0124e-06
-5.46304e-07
-2.47211e-06
-5.40302e-07
-1.93823e-06
-5.33909e-07
-1.41874e-06
-5.19511e-07
-9.19969e-07
-4.98814e-07
-4.35284e-07
-4.84734e-07
3.62903e-08
-4.71635e-07
4.9406e-07
-4.5784e-07
9.38802e-07
-4.4482e-07
1.36477e-06
-4.26052e-07
1.76791e-06
-4.03236e-07
2.15517e-06
-3.87349e-07
2.53055e-06
-3.75469e-07
2.89571e-06
-3.6525e-07
3.2494e-06
-3.53761e-07
3.58715e-06
-3.37821e-07
3.90626e-06
-3.19178e-07
4.21203e-06
-3.05825e-07
4.50644e-06
-2.94453e-07
4.78836e-06
-2.81971e-07
5.05904e-06
-2.70727e-07
5.31882e-06
-2.5982e-07
5.56307e-06
-2.44289e-07
5.79345e-06
-2.30417e-07
6.01346e-06
-2.20051e-07
6.22267e-06
-2.09252e-07
6.42123e-06
-1.98597e-07
6.6093e-06
-1.88098e-07
6.78501e-06
-1.75729e-07
6.94918e-06
-1.64176e-07
7.10383e-06
-1.54651e-07
7.24904e-06
-1.45198e-07
7.3831e-06
-1.34039e-07
7.5067e-06
-1.23577e-07
7.62142e-06
-1.14687e-07
7.72857e-06
-1.07122e-07
7.82823e-06
-9.9613e-08
7.91709e-06
-8.88264e-08
7.99613e-06
-7.90085e-08
8.06854e-06
-7.23797e-08
8.1353e-06
-6.67247e-08
8.19399e-06
-5.86577e-08
8.24468e-06
-5.0654e-08
8.2891e-06
-4.43849e-08
8.32715e-06
-3.80053e-08
8.35837e-06
-3.11632e-08
8.38417e-06
-2.57446e-08
8.40452e-06
-2.02937e-08
8.42006e-06
-1.54812e-08
8.43036e-06
-1.02361e-08
8.43492e-06
-4.48791e-09
8.43525e-06
-2.48783e-10
8.43218e-06
3.15325e-09
8.42596e-06
6.30339e-09
8.41562e-06
1.04358e-08
8.40056e-06
1.51467e-08
8.38124e-06
1.94121e-08
8.35844e-06
2.28919e-08
8.33407e-06
2.44594e-08
8.30835e-06
2.58133e-08
8.28032e-06
2.81126e-08
8.2494e-06
3.10096e-08
8.21465e-06
3.4821e-08
8.17745e-06
3.72576e-08
8.13895e-06
3.85364e-08
8.09944e-06
3.95207e-08
8.05862e-06
4.08078e-08
8.0156e-06
4.29798e-08
7.97103e-06
4.45147e-08
7.92607e-06
4.49026e-08
7.88008e-06
4.5933e-08
7.83123e-06
4.8786e-08
7.78128e-06
4.98929e-08
7.73104e-06
5.01679e-08
7.68075e-06
5.02194e-08
7.63014e-06
5.0526e-08
7.57867e-06
5.1404e-08
7.52599e-06
5.26364e-08
7.47203e-06
5.39358e-08
7.41748e-06
5.45647e-08
7.36278e-06
5.475e-08
7.30859e-06
5.4252e-08
7.25425e-06
5.44091e-08
7.19882e-06
5.55177e-08
7.14221e-06
5.6695e-08
7.08551e-06
5.67892e-08
7.02862e-06
5.69891e-08
6.97172e-06
5.69882e-08
6.91473e-06
5.70714e-08
6.85711e-06
5.76988e-08
6.7989e-06
5.82687e-08
6.74039e-06
5.85457e-08
6.682e-06
5.84206e-08
6.62368e-06
5.8334e-08
6.56467e-06
5.90181e-08
6.50518e-06
5.9495e-08
6.44564e-06
5.9544e-08
6.3868e-06
5.88504e-08
6.3275e-06
5.93058e-08
6.26743e-06
6.00667e-08
6.20699e-06
6.04283e-08
6.14661e-06
6.03557e-08
6.08651e-06
6.00797e-08
6.02628e-06
6.01995e-08
5.96566e-06
6.06016e-08
5.90468e-06
6.09578e-08
5.84386e-06
6.08102e-08
5.78325e-06
6.06094e-08
5.72232e-06
6.09304e-08
5.66098e-06
6.13457e-08
5.5994e-06
6.15798e-08
5.53815e-06
6.12615e-08
5.47724e-06
6.09081e-08
5.41576e-06
6.14876e-08
5.35384e-06
6.19211e-08
5.29206e-06
6.17791e-08
5.23086e-06
6.11983e-08
5.16956e-06
6.13066e-08
5.10777e-06
6.17956e-08
5.04581e-06
6.19671e-08
4.98377e-06
6.20426e-08
4.92193e-06
6.1845e-08
4.86037e-06
6.15672e-08
4.79891e-06
6.14706e-08
4.73749e-06
6.14227e-08
4.67604e-06
6.14538e-08
4.61448e-06
6.15577e-08
4.55294e-06
6.15446e-08
4.49165e-06
6.12917e-08
4.43071e-06
6.09448e-08
4.36964e-06
6.10709e-08
4.3083e-06
6.13367e-08
4.24695e-06
6.13493e-08
4.1857e-06
6.125e-08
4.1248e-06
6.08908e-08
4.06429e-06
6.05043e-08
4.0037e-06
6.05864e-08
3.94299e-06
6.06986e-08
3.88227e-06
6.07203e-08
3.82201e-06
6.02443e-08
3.76216e-06
5.98401e-08
3.70211e-06
6.00382e-08
3.64204e-06
6.00641e-08
3.58212e-06
5.99088e-08
3.52261e-06
5.95092e-08
3.46338e-06
5.92222e-08
3.40401e-06
5.93597e-08
3.34477e-06
5.92337e-08
3.2859e-06
5.88677e-08
3.2274e-06
5.84908e-08
3.16899e-06
5.84016e-08
3.11066e-06
5.83207e-08
3.05257e-06
5.80865e-08
2.9947e-06
5.78648e-08
2.93729e-06
5.73958e-08
2.88017e-06
5.7112e-08
2.82314e-06
5.70185e-08
2.76631e-06
5.68206e-08
2.70973e-06
5.6573e-08
2.65348e-06
5.62382e-08
2.59776e-06
5.57069e-08
2.54243e-06
5.53171e-08
2.48738e-06
5.50406e-08
2.43265e-06
5.47273e-08
2.37839e-06
5.42461e-08
2.32455e-06
5.3836e-08
2.27095e-06
5.35855e-08
2.21766e-06
5.32845e-08
2.1647e-06
5.29566e-08
2.1122e-06
5.24984e-08
2.0603e-06
5.18913e-08
2.00889e-06
5.14044e-08
1.95784e-06
5.10505e-08
1.90711e-06
5.07294e-08
1.8567e-06
5.04015e-08
1.80676e-06
4.99395e-08
1.75729e-06
4.94729e-08
1.70836e-06
4.89274e-08
1.65994e-06
4.84155e-08
1.61181e-06
4.8134e-08
1.56416e-06
4.76461e-08
1.51727e-06
4.68901e-08
1.47098e-06
4.62854e-08
1.42487e-06
4.61128e-08
1.37935e-06
4.5515e-08
1.33447e-06
4.48824e-08
1.28996e-06
4.45108e-08
1.24592e-06
4.40389e-08
1.20249e-06
4.34262e-08
1.15973e-06
4.27565e-08
1.11756e-06
4.21772e-08
1.076e-06
4.15504e-08
1.03487e-06
4.11327e-08
9.94238e-07
4.06321e-08
9.53987e-07
4.02503e-08
9.14353e-07
3.96339e-08
8.75068e-07
3.92839e-08
8.36615e-07
3.84522e-08
7.98462e-07
3.81526e-08
7.60828e-07
3.76341e-08
7.23674e-07
3.7154e-08
6.87147e-07
3.65264e-08
6.51443e-07
3.57039e-08
6.15938e-07
3.55036e-08
5.81399e-07
3.45387e-08
5.47684e-07
3.37143e-08
5.14541e-07
3.31425e-08
4.83087e-07
3.14534e-08
4.52471e-07
3.06163e-08
4.19902e-07
3.25688e-08
3.89442e-07
3.04599e-08
3.59304e-07
3.01377e-08
3.2891e-07
3.03943e-08
3.10022e-07
1.88878e-08
2.9061e-07
1.94124e-08
2.56076e-07
3.45331e-08
2.33217e-07
2.28584e-08
1.92754e-07
4.04624e-08
1.35376e-07
5.73771e-08
4.46269e-08
9.07481e-08
-4.56985e-08
9.03245e-08
-1.01877e-07
5.61772e-08
-1.54695e-07
5.28173e-08
-1.94977e-07
4.02811e-08
-2.3204e-07
3.70624e-08
-2.64619e-07
3.25772e-08
-2.96511e-07
3.18906e-08
-3.25877e-07
2.9365e-08
-3.5377e-07
2.78915e-08
-3.78687e-07
2.4916e-08
-4.03328e-07
2.46396e-08
-4.1872e-07
1.53906e-08
-4.34193e-07
1.54723e-08
-4.59194e-07
2.49998e-08
-4.76067e-07
1.68727e-08
-5.04092e-07
2.80243e-08
-5.43891e-07
3.97986e-08
-6.04302e-07
6.04109e-08
-6.63433e-07
5.91306e-08
-6.99908e-07
3.64742e-08
-7.34229e-07
3.43194e-08
-7.60883e-07
2.66534e-08
-7.84754e-07
2.38688e-08
-8.0686e-07
2.2105e-08
-8.25873e-07
1.90111e-08
-8.42965e-07
1.709e-08
-8.55516e-07
1.25499e-08
-8.65409e-07
9.89094e-09
-8.78753e-07
1.33419e-08
-8.88523e-07
9.76837e-09
-9.00332e-07
1.1808e-08
-9.12264e-07
1.19307e-08
-8.94909e-07
-1.73549e-08
-8.75025e-07
-1.98842e-08
-8.89319e-07
1.42941e-08
-8.82019e-07
-7.2993e-09
-9.59233e-07
7.72141e-08
-1.07182e-06
1.12583e-07
-1.34821e-06
2.76397e-07
-1.61991e-06
2.71699e-07
-1.8121e-06
1.92189e-07
-1.95724e-06
1.45143e-07
-2.06368e-06
1.06442e-07
-2.14754e-06
8.38567e-08
-2.21595e-06
6.84146e-08
-2.27396e-06
5.80129e-08
-2.32457e-06
5.06099e-08
-2.3697e-06
4.51257e-08
-2.41065e-06
4.09461e-08
-2.4483e-06
3.76557e-08
-2.48321e-06
3.49031e-08
-2.51576e-06
3.25487e-08
-2.54633e-06
3.05686e-08
-2.57527e-06
2.89382e-08
-2.60282e-06
2.75482e-08
-2.62909e-06
2.62668e-08
-2.65413e-06
2.50311e-08
-2.67797e-06
2.38397e-08
-2.70071e-06
2.27413e-08
-2.72247e-06
2.17579e-08
-2.74338e-06
2.09056e-08
-2.7635e-06
2.01113e-08
-2.78287e-06
1.93736e-08
-2.80154e-06
1.86573e-08
-2.81935e-06
1.78158e-08
-2.83646e-06
1.71071e-08
-2.8529e-06
1.64366e-08
-2.86859e-06
1.56878e-08
-2.88353e-06
1.49333e-08
-2.89769e-06
1.41549e-08
-2.91103e-06
1.33359e-08
-2.92355e-06
1.25218e-08
-2.93531e-06
1.17545e-08
-2.94638e-06
1.1067e-08
-2.95684e-06
1.04584e-08
-2.96681e-06
9.96746e-09
-2.97647e-06
9.65633e-09
-2.98569e-06
9.21744e-09
-2.99458e-06
8.88368e-09
-3.00323e-06
8.64843e-09
-3.0117e-06
8.46214e-09
-3.02004e-06
8.33742e-09
-3.02829e-06
8.2555e-09
-3.03646e-06
8.16143e-09
-3.04447e-06
8.00849e-09
-3.05227e-06
7.79581e-09
-3.05975e-06
7.48005e-09
-3.06686e-06
7.10205e-09
-3.07353e-06
6.6673e-09
-3.07975e-06
6.21947e-09
-3.08556e-06
5.80518e-09
-3.09109e-06
5.52484e-09
-3.09656e-06
5.46335e-09
-3.10215e-06
5.5867e-09
-3.10783e-06
5.67922e-09
-3.11335e-06
5.51923e-09
-3.11838e-06
5.02185e-09
-3.12287e-06
4.48724e-09
-3.12727e-06
4.40643e-09
-3.13212e-06
4.84125e-09
-3.13751e-06
5.39612e-09
-3.14315e-06
5.63144e-09
-3.14815e-06
5.00714e-09
-3.15245e-06
4.29588e-09
-3.15674e-06
4.29012e-09
-3.16159e-06
4.85357e-09
-3.16675e-06
5.15742e-09
-3.1711e-06
4.35341e-09
-3.1745e-06
3.40313e-09
-3.17788e-06
3.37956e-09
-3.18166e-06
3.7811e-09
-3.18515e-06
3.49581e-09
-3.18773e-06
2.5883e-09
-3.19036e-06
2.63622e-09
-3.19396e-06
3.5986e-09
-3.19811e-06
4.1602e-09
-3.20223e-06
4.12198e-09
-3.20687e-06
4.64211e-09
-3.21283e-06
5.96307e-09
1.08818e-08
5.77412e-05
-6.65724e-05
7.05615e-05
-4.13967e-05
6.73347e-05
8.95615e-06
5.91056e-05
2.47763e-05
5.18652e-05
2.28204e-05
4.56902e-05
1.75392e-05
4.03018e-05
1.34615e-05
3.57363e-05
1.06517e-05
3.18472e-05
8.76616e-06
2.84834e-05
7.41084e-06
2.54806e-05
6.41249e-06
2.2741e-05
5.64092e-06
2.01884e-05
5.11605e-06
1.77792e-05
4.80867e-06
1.54798e-05
4.80158e-06
1.32631e-05
4.8365e-06
1.11323e-05
4.64853e-06
9.0777e-06
4.16917e-06
7.0181e-06
3.85079e-06
4.94926e-06
3.79612e-06
2.89574e-06
3.91575e-06
9.28024e-07
4.04649e-06
-9.6505e-07
4.09439e-06
-2.86018e-06
4.17077e-06
-4.89997e-06
4.32006e-06
-7.0948e-06
4.24323e-06
-9.27578e-06
3.95742e-06
-1.12185e-05
3.62729e-06
-1.29285e-05
3.59979e-06
-1.45436e-05
3.73297e-06
-1.6291e-05
3.82245e-06
-1.81535e-05
3.50726e-06
-1.99975e-05
3.27106e-06
-2.17292e-05
3.31927e-06
-2.34396e-05
3.70534e-06
-2.52026e-05
4.05461e-06
-2.70407e-05
4.00939e-06
-2.87973e-05
3.40063e-06
-3.03955e-05
2.86316e-06
-3.19114e-05
2.77143e-06
-3.34608e-05
3.14245e-06
-3.5166e-05
3.59997e-06
-3.69879e-05
3.71722e-06
-3.87749e-05
3.50166e-06
-4.04059e-05
3.05383e-06
-4.19059e-05
2.72861e-06
-4.32835e-05
2.64248e-06
-4.46908e-05
2.77226e-06
-4.61407e-05
2.86355e-06
-4.74851e-05
2.64641e-06
-4.86788e-05
2.31858e-06
-4.98931e-05
2.32231e-06
-5.12206e-05
2.65938e-06
-5.25478e-05
2.85445e-06
-5.37545e-05
2.77547e-06
-5.48259e-05
2.43784e-06
-5.5852e-05
2.03329e-06
-5.69482e-05
1.92637e-06
-5.81601e-05
2.14237e-06
-5.93362e-05
2.17358e-06
-6.02761e-05
1.76159e-06
-6.08916e-05
9.69248e-07
-6.1243e-05
1.13139e-07
-6.15533e-05
-3.47505e-07
-6.19595e-05
-4.32695e-07
-6.23439e-05
-5.93479e-07
-6.25973e-05
-1.07786e-06
-6.26769e-05
-1.88261e-06
-6.25078e-05
-2.9054e-06
-6.19834e-05
-4.06183e-06
-6.10008e-05
-5.18451e-06
-5.95708e-05
-6.08344e-06
-5.76304e-05
-6.65771e-06
-5.49095e-05
-6.87338e-06
-5.11526e-05
-6.79506e-06
-4.62669e-05
-6.42724e-06
-4.09362e-05
-5.81515e-06
-3.64301e-05
-4.86201e-06
-3.40894e-05
-3.67431e-06
-3.27292e-05
-2.72838e-06
-3.03605e-05
-2.02878e-06
-2.71054e-05
-2.95315e-06
-2.44271e-05
-2.15279e-06
-2.39584e-05
1.45784e-08
-2.35761e-05
3.84812e-07
-2.37987e-05
4.1266e-07
-2.41695e-05
3.69044e-07
-2.46813e-05
6.14282e-07
-2.51784e-05
5.1755e-07
-2.51742e-05
-2.0745e-07
-2.49443e-05
-5.71446e-07
-2.49061e-05
-7.76722e-07
-2.48218e-05
-1.28449e-06
-2.4742e-05
-1.82267e-06
-2.45491e-05
-2.7693e-06
-2.41247e-05
-3.53112e-06
-2.3378e-05
-4.3905e-06
-2.18787e-05
-5.01714e-06
-1.96098e-05
-5.12985e-06
-1.62338e-05
-4.56674e-06
-1.24232e-05
-3.71643e-06
-8.95415e-06
-2.75183e-06
-7.00843e-06
-1.1139e-06
-6.26739e-06
-7.29721e-09
-6.05392e-06
7.56959e-07
-6.367e-06
8.35404e-07
-6.89278e-06
7.80993e-07
-7.63572e-06
1.06148e-06
-8.47228e-06
1.28922e-06
-8.95771e-06
8.96399e-07
-9.15632e-06
5.76419e-07
-9.42603e-06
6.09619e-07
-9.71819e-06
4.60065e-07
-1.00598e-05
3.07597e-07
-1.04858e-05
8.16699e-08
-1.08252e-05
-2.4611e-07
-1.11313e-05
-5.35757e-07
-1.10135e-05
-5.52573e-07
-1.0418e-05
-4.2306e-07
-9.52493e-06
-5.12504e-07
-8.99875e-06
-5.34773e-08
-9.06085e-06
4.78654e-07
-9.24685e-06
7.72906e-07
-9.56924e-06
8.17792e-07
-9.96766e-06
7.62141e-07
-1.05348e-05
9.57041e-07
-1.1015e-05
8.51545e-07
-1.13469e-05
7.0521e-07
-1.1686e-05
7.25845e-07
-1.20096e-05
6.80268e-07
-1.23506e-05
6.77029e-07
-1.27072e-05
6.90418e-07
-1.30381e-05
6.49376e-07
-1.33469e-05
6.22025e-07
-1.36536e-05
6.15968e-07
-1.39556e-05
6.09835e-07
-1.42539e-05
5.98595e-07
-1.45478e-05
5.85849e-07
-1.48391e-05
5.77911e-07
-1.51174e-05
5.53896e-07
-1.5383e-05
5.32907e-07
-1.56392e-05
5.09213e-07
-1.58852e-05
4.88499e-07
-1.61219e-05
4.71671e-07
-1.63445e-05
4.46899e-07
-1.65524e-05
4.18314e-07
-1.67492e-05
3.90874e-07
-1.69375e-05
3.71828e-07
-1.71145e-05
3.51988e-07
-1.72785e-05
3.29501e-07
-1.74265e-05
3.01122e-07
-1.75611e-05
2.70432e-07
-1.76852e-05
2.45206e-07
-1.78001e-05
2.26216e-07
-1.79046e-05
2.06601e-07
-1.79957e-05
1.84028e-07
-1.80712e-05
1.55006e-07
-1.81349e-05
1.27474e-07
-1.81883e-05
1.04919e-07
-1.82322e-05
8.69886e-08
-1.8265e-05
6.7258e-08
-1.82853e-05
3.99107e-08
-1.82922e-05
1.20368e-08
-1.82872e-05
-1.07763e-08
-1.82721e-05
-2.90957e-08
-1.82452e-05
-5.22486e-08
-1.8204e-05
-8.30955e-08
-1.81488e-05
-1.11346e-07
-1.80837e-05
-1.30871e-07
-1.80078e-05
-1.49933e-07
-1.79184e-05
-1.76437e-07
-1.78138e-05
-2.09471e-07
-1.76951e-05
-2.38609e-07
-1.75654e-05
-2.60092e-07
-1.74239e-05
-2.81019e-07
-1.72682e-05
-3.07634e-07
-1.70982e-05
-3.38314e-07
-1.6914e-05
-3.69622e-07
-1.67177e-05
-3.94507e-07
-1.65073e-05
-4.20156e-07
-1.628e-05
-4.49995e-07
-1.6037e-05
-4.81208e-07
-1.5781e-05
-5.11412e-07
-1.55126e-05
-5.3916e-07
-1.52311e-05
-5.61993e-07
-1.49335e-05
-5.90109e-07
-1.4619e-05
-6.2704e-07
-1.42855e-05
-6.68751e-07
-1.39358e-05
-6.99609e-07
-1.35703e-05
-7.26361e-07
-1.31887e-05
-7.58463e-07
-1.2793e-05
-7.88924e-07
-1.23849e-05
-8.18637e-07
-1.19618e-05
-8.50145e-07
-1.15218e-05
-8.81069e-07
-1.10618e-05
-9.19199e-07
-1.05843e-05
-9.53276e-07
-1.00936e-05
-9.77907e-07
-9.59391e-06
-9.98293e-07
-9.08449e-06
-1.02115e-06
-8.56049e-06
-1.0521e-06
-8.02252e-06
-1.08243e-06
-7.47694e-06
-1.09819e-06
-6.92814e-06
-1.10132e-06
-6.37402e-06
-1.10782e-06
-5.81424e-06
-1.11775e-06
-5.25116e-06
-1.1267e-06
-4.68913e-06
-1.13099e-06
-4.13181e-06
-1.12375e-06
-3.58066e-06
-1.10742e-06
-3.03512e-06
-1.0919e-06
-2.49529e-06
-1.08021e-06
-1.96571e-06
-1.06357e-06
-1.45043e-06
-1.03489e-06
-9.4974e-07
-9.9961e-07
-4.62734e-07
-9.71854e-07
1.08698e-08
-9.45359e-07
4.70326e-07
-9.17421e-07
9.14604e-07
-8.89225e-07
1.34277e-06
-8.54345e-07
1.7526e-06
-8.13192e-07
2.14547e-06
-7.80341e-07
2.5243e-06
-7.54415e-07
2.891e-06
-7.3206e-07
3.24368e-06
-7.06539e-07
3.58217e-06
-6.76399e-07
3.90579e-06
-6.42886e-07
4.21531e-06
-6.15419e-07
4.51135e-06
-5.9056e-07
4.79461e-06
-5.65299e-07
5.06548e-06
-5.41658e-07
5.32457e-06
-5.18975e-07
5.57072e-06
-4.90506e-07
5.80359e-06
-4.63348e-07
6.02428e-06
-4.40787e-07
6.23389e-06
-4.1891e-07
6.433e-06
-3.97744e-07
6.62147e-06
-3.7659e-07
6.79852e-06
-3.52782e-07
6.9638e-06
-3.29451e-07
7.11721e-06
-3.08043e-07
7.26072e-06
-2.88671e-07
7.39483e-06
-2.68096e-07
7.51986e-06
-2.48557e-07
7.63561e-06
-2.30373e-07
7.74213e-06
-2.13578e-07
7.84031e-06
-1.97729e-07
7.92983e-06
-1.78292e-07
8.00965e-06
-1.58765e-07
8.0814e-06
-1.44073e-07
8.14702e-06
-1.3229e-07
8.20549e-06
-1.17073e-07
8.25598e-06
-1.01079e-07
8.2993e-06
-8.76398e-08
8.33664e-06
-7.528e-08
8.36864e-06
-6.30817e-08
8.39497e-06
-5.199e-08
8.41534e-06
-4.0577e-08
8.42981e-06
-2.98425e-08
8.43808e-06
-1.83898e-08
8.44212e-06
-8.39284e-09
8.44318e-06
-1.16782e-09
8.44024e-06
6.24654e-09
8.43322e-06
1.34888e-08
8.42185e-06
2.19732e-08
8.40622e-06
3.09466e-08
8.38693e-06
3.8873e-08
8.36465e-06
4.53372e-08
8.3403e-06
4.89633e-08
8.31384e-06
5.24161e-08
8.28462e-06
5.74584e-08
8.25261e-06
6.31099e-08
8.21819e-06
6.93221e-08
8.18162e-06
7.38714e-08
8.1433e-06
7.68847e-08
8.10293e-06
7.98877e-08
8.06096e-06
8.27571e-08
8.01782e-06
8.60687e-08
7.97357e-06
8.86963e-08
7.92817e-06
9.02079e-08
7.88159e-06
9.2406e-08
7.83299e-06
9.72717e-08
7.78328e-06
9.94743e-08
7.73325e-06
1.0009e-07
7.68279e-06
1.00588e-07
7.63152e-06
1.0173e-07
7.57933e-06
1.03561e-07
7.52636e-06
1.05614e-07
7.47267e-06
1.07667e-07
7.41862e-06
1.08695e-07
7.36417e-06
1.09294e-07
7.30936e-06
1.09186e-07
7.2541e-06
1.09808e-07
7.19823e-06
1.11539e-07
7.14205e-06
1.13029e-07
7.08586e-06
1.13137e-07
7.02909e-06
1.13905e-07
6.97161e-06
1.14591e-07
6.91395e-06
1.14848e-07
6.85636e-06
1.15376e-07
6.79855e-06
1.16147e-07
6.74043e-06
1.16716e-07
6.68182e-06
1.1707e-07
6.62291e-06
1.17268e-07
6.56395e-06
1.18001e-07
6.50502e-06
1.18439e-07
6.44571e-06
1.18866e-07
6.38633e-06
1.18231e-07
6.32659e-06
1.19033e-07
6.26659e-06
1.20049e-07
6.20657e-06
1.20415e-07
6.14639e-06
1.205e-07
6.08588e-06
1.20542e-07
6.02541e-06
1.20642e-07
5.96488e-06
1.21106e-07
5.90423e-06
1.21591e-07
5.84341e-06
1.21628e-07
5.78236e-06
1.21658e-07
5.72124e-06
1.22055e-07
5.66013e-06
1.22468e-07
5.59897e-06
1.22745e-07
5.53775e-06
1.22486e-07
5.47635e-06
1.22304e-07
5.41463e-06
1.23217e-07
5.35304e-06
1.23513e-07
5.29157e-06
1.23256e-07
5.23007e-06
1.22697e-07
5.16848e-06
1.22914e-07
5.10672e-06
1.23559e-07
5.04493e-06
1.23774e-07
4.98323e-06
1.23745e-07
4.92159e-06
1.23497e-07
4.85993e-06
1.23236e-07
4.79832e-06
1.23086e-07
4.73679e-06
1.22959e-07
4.67535e-06
1.22902e-07
4.61389e-06
1.23019e-07
4.55245e-06
1.2298e-07
4.49107e-06
1.22681e-07
4.42974e-06
1.22272e-07
4.36853e-06
1.22278e-07
4.30737e-06
1.22496e-07
4.24616e-06
1.22549e-07
4.18511e-06
1.22291e-07
4.12425e-06
1.21744e-07
4.06349e-06
1.21256e-07
4.00275e-06
1.21306e-07
3.94213e-06
1.21302e-07
3.88166e-06
1.21173e-07
3.82133e-06
1.20555e-07
3.76111e-06
1.20039e-07
3.70096e-06
1.20177e-07
3.64101e-06
1.19999e-07
3.58122e-06
1.1968e-07
3.52157e-06
1.19142e-07
3.46212e-06
1.18662e-07
3.40286e-06
1.18605e-07
3.34387e-06
1.18219e-07
3.28498e-06
1.17746e-07
3.22612e-06
1.17333e-07
3.16743e-06
1.17075e-07
3.10921e-06
1.16531e-07
3.05128e-06
1.15999e-07
2.99346e-06
1.15664e-07
2.93593e-06
1.14908e-07
2.87858e-06
1.14451e-07
2.82146e-06
1.14115e-07
2.76475e-06
1.1351e-07
2.70831e-06
1.12989e-07
2.65216e-06
1.12371e-07
2.59638e-06
1.11467e-07
2.54096e-06
1.10724e-07
2.4859e-06
1.10081e-07
2.43111e-06
1.09495e-07
2.37668e-06
1.08662e-07
2.3226e-06
1.079e-07
2.26893e-06
1.07245e-07
2.21576e-06
1.06445e-07
2.16295e-06
1.05758e-07
2.11047e-06
1.04969e-07
2.05841e-06
1.0395e-07
2.00679e-06
1.03013e-07
1.95561e-06
1.02227e-07
1.90479e-06
1.01537e-07
1.85433e-06
1.00862e-07
1.80445e-06
9.98132e-08
1.75504e-06
9.88857e-08
1.70606e-06
9.79038e-08
1.65756e-06
9.69121e-08
1.60957e-06
9.61239e-08
1.56206e-06
9.51491e-08
1.51506e-06
9.38937e-08
1.46847e-06
9.28728e-08
1.42236e-06
9.22123e-08
1.37685e-06
9.10274e-08
1.33193e-06
8.98029e-08
1.28748e-06
8.89546e-08
1.24364e-06
8.78756e-08
1.2002e-06
8.68639e-08
1.15745e-06
8.55088e-08
1.11514e-06
8.44863e-08
1.07354e-06
8.31464e-08
1.03233e-06
8.23445e-08
9.91849e-07
8.11117e-08
9.51696e-07
8.04024e-08
9.12381e-07
7.89482e-08
8.73291e-07
7.83729e-08
8.35037e-07
7.6706e-08
7.97021e-07
7.61676e-08
7.59036e-07
7.56187e-08
7.21744e-07
7.4446e-08
6.84512e-07
7.37578e-08
6.4889e-07
7.13249e-08
6.13506e-07
7.08874e-08
5.80294e-07
6.77495e-08
5.47215e-07
6.67929e-08
5.12175e-07
6.81825e-08
4.78039e-07
6.55895e-08
4.44706e-07
6.39491e-08
4.13177e-07
6.40985e-08
3.93419e-07
5.0218e-08
3.72377e-07
5.11797e-08
3.34757e-07
6.80144e-08
2.98056e-07
5.55891e-08
2.44211e-07
7.3257e-08
1.83315e-07
9.54284e-08
8.83538e-08
1.17819e-07
5.30035e-10
1.28285e-07
-5.24577e-08
1.10364e-07
-9.03198e-08
1.28609e-07
-1.13973e-07
1.13977e-07
-1.49121e-07
9.13236e-08
-1.7962e-07
8.33158e-08
-2.14542e-07
7.52026e-08
-2.46368e-07
6.88869e-08
-2.79439e-07
6.56472e-08
-3.08951e-07
6.14013e-08
-3.36772e-07
5.71847e-08
-3.55186e-07
4.63049e-08
-3.73986e-07
4.3715e-08
-4.03775e-07
5.44282e-08
-4.32714e-07
4.43293e-08
-4.72062e-07
5.48211e-08
-5.15889e-07
6.8828e-08
-5.80776e-07
8.1761e-08
-6.40229e-07
8.74788e-08
-6.7509e-07
7.46619e-08
-6.99683e-07
8.50044e-08
-7.15073e-07
7.45219e-08
-7.39625e-07
6.10272e-08
-7.58424e-07
5.31184e-08
-7.80146e-07
4.83755e-08
-7.93958e-07
3.76797e-08
-8.1055e-07
3.86968e-08
-8.26847e-07
3.53072e-08
-8.46239e-07
3.64814e-08
-8.64978e-07
3.1288e-08
-8.85483e-07
3.03953e-08
-9.00948e-07
2.88058e-08
-8.85085e-07
-6.09533e-09
-8.66142e-07
-7.13457e-09
-8.83686e-07
2.94754e-08
-9.06743e-07
5.70346e-09
-1.01367e-06
8.70424e-08
-1.1463e-06
1.46926e-07
-1.43917e-06
2.8557e-07
-1.70801e-06
3.46062e-07
-1.90022e-06
3.0479e-07
-2.01751e-06
3.93695e-07
-2.04224e-06
2.9643e-07
-2.07676e-06
2.26716e-07
-2.12172e-06
1.90099e-07
-2.17223e-06
1.56959e-07
-2.22277e-06
1.34395e-07
-2.2718e-06
1.17451e-07
-2.31844e-06
1.04655e-07
-2.36212e-06
9.42848e-08
-2.40276e-06
8.57694e-08
-2.44066e-06
7.88464e-08
-2.47611e-06
7.3099e-08
-2.50931e-06
6.81062e-08
-2.54053e-06
6.37568e-08
-2.57e-06
6.00412e-08
-2.59791e-06
5.68463e-08
-2.62436e-06
5.39894e-08
-2.64943e-06
5.13355e-08
-2.67318e-06
4.87786e-08
-2.69586e-06
4.65153e-08
-2.71755e-06
4.44226e-08
-2.73836e-06
4.25674e-08
-2.75838e-06
4.09279e-08
-2.7777e-06
3.94262e-08
-2.79633e-06
3.79917e-08
-2.81422e-06
3.65504e-08
-2.83157e-06
3.51608e-08
-2.84821e-06
3.37416e-08
-2.86403e-06
3.22571e-08
-2.8792e-06
3.08568e-08
-2.89373e-06
2.94561e-08
-2.90762e-06
2.80459e-08
-2.92087e-06
2.65786e-08
-2.9335e-06
2.5147e-08
-2.94556e-06
2.38088e-08
-2.95708e-06
2.25874e-08
-2.96807e-06
2.14476e-08
-2.97851e-06
2.0408e-08
-2.98829e-06
1.94273e-08
-2.99781e-06
1.87355e-08
-3.00702e-06
1.80898e-08
-3.0159e-06
1.75314e-08
-3.02454e-06
1.70935e-08
-3.03297e-06
1.67653e-08
-3.0412e-06
1.64837e-08
-3.04921e-06
1.61693e-08
-3.05696e-06
1.57583e-08
-3.0644e-06
1.52353e-08
-3.07154e-06
1.46194e-08
-3.07838e-06
1.39384e-08
-3.08491e-06
1.3197e-08
-3.0911e-06
1.24035e-08
-3.09695e-06
1.16528e-08
-3.10253e-06
1.11031e-08
-3.10799e-06
1.09154e-08
-3.11342e-06
1.10211e-08
-3.11882e-06
1.107e-08
-3.124e-06
1.07018e-08
-3.12891e-06
9.93061e-09
-3.13371e-06
9.27983e-09
-3.13859e-06
9.27942e-09
-3.14377e-06
1.00191e-08
-3.1491e-06
1.07239e-08
-3.15377e-06
1.02855e-08
-3.15794e-06
9.17352e-09
-3.16217e-06
8.52189e-09
-3.16684e-06
8.94423e-09
-3.17167e-06
9.67767e-09
-3.17588e-06
9.35453e-09
-3.17942e-06
7.88014e-09
-3.18313e-06
7.10445e-09
-3.18726e-06
7.49389e-09
-3.19125e-06
7.76124e-09
-3.19453e-06
6.76234e-09
-3.19804e-06
6.08205e-09
-3.20212e-06
6.70522e-09
-3.20632e-06
7.77403e-09
-3.21026e-06
8.0868e-09
-3.21394e-06
7.7889e-09
-3.21688e-06
7.56744e-09
-3.21971e-06
8.77853e-09
1.48792e-08
3.87854e-05
-7.26858e-05
2.56258e-05
-2.82373e-05
2.32905e-05
1.12913e-05
2.59952e-05
2.20715e-05
3.02362e-05
1.85792e-05
3.13329e-05
1.64423e-05
3.0731e-05
1.40631e-05
2.92437e-05
1.21388e-05
2.73279e-05
1.06816e-05
2.52125e-05
9.52592e-06
2.29955e-05
8.62914e-06
2.07276e-05
7.90848e-06
1.84592e-05
7.384e-06
1.624e-05
7.02744e-06
1.41581e-05
6.88313e-06
1.22301e-05
6.76401e-06
1.03553e-05
6.52295e-06
8.37213e-06
6.15187e-06
6.24762e-06
5.9749e-06
4.07681e-06
5.96657e-06
2.0257e-06
5.96652e-06
1.97198e-07
5.87468e-06
-1.473e-06
5.7643e-06
-3.15353e-06
5.85104e-06
-5.0084e-06
6.17468e-06
-7.18708e-06
6.42168e-06
-9.45224e-06
6.22235e-06
-1.14684e-05
5.64324e-06
-1.31053e-05
5.23646e-06
-1.45873e-05
5.21483e-06
-1.6185e-05
5.41994e-06
-1.81201e-05
5.44222e-06
-2.01264e-05
5.27719e-06
-2.19205e-05
5.11322e-06
-2.34505e-05
5.23508e-06
-2.49087e-05
5.51271e-06
-2.64808e-05
5.58124e-06
-2.82843e-05
5.20397e-06
-3.01878e-05
4.76647e-06
-3.20007e-05
4.58415e-06
-3.36839e-05
4.82554e-06
-3.5285e-05
5.20085e-06
-3.69405e-05
5.37255e-06
-3.8671e-05
5.23193e-06
-4.04492e-05
4.83186e-06
-4.21978e-05
4.47698e-06
-4.38284e-05
4.27281e-06
-4.52827e-05
4.22627e-06
-4.66266e-05
4.20709e-06
-4.79589e-05
3.97839e-06
-4.93083e-05
3.66753e-06
-5.05853e-05
3.59894e-06
-5.17585e-05
3.832e-06
-5.28481e-05
3.94354e-06
-5.38179e-05
3.74463e-06
-5.47809e-05
3.40019e-06
-5.59131e-05
3.1648e-06
-5.71877e-05
3.20019e-06
-5.84397e-05
3.3935e-06
-5.94963e-05
3.22931e-06
-6.03457e-05
2.61007e-06
-6.10785e-05
1.70108e-06
-6.18506e-05
8.84256e-07
-6.27124e-05
5.13192e-07
-6.35025e-05
3.56366e-07
-6.40516e-05
-4.54294e-08
-6.44942e-05
-6.36289e-07
-6.51224e-05
-1.25545e-06
-6.59782e-05
-2.05061e-06
-6.6905e-05
-3.13594e-06
-6.77506e-05
-4.33972e-06
-6.84244e-05
-5.41047e-06
-6.87872e-05
-6.29557e-06
-6.86475e-05
-7.01371e-06
-6.79438e-05
-7.49927e-06
-6.66319e-05
-7.73956e-06
-6.47621e-05
-7.68507e-06
-6.19328e-05
-7.69145e-06
-5.77598e-05
-7.84737e-06
-5.24504e-05
-8.03786e-06
-4.65902e-05
-7.88902e-06
-4.25569e-05
-6.98642e-06
-3.91255e-05
-5.5842e-06
-3.46391e-05