/*--------------------------------*- C++ -*----------------------------------*\
| =========                 |                                                 |
| \\      /  F ield         | OpenFOAM: The Open Source CFD Toolbox           |
|  \\    /   O peration     | Version:  v2006                                 |
|   \\  /    A nd           | Website:  www.openfoam.com                      |
|    \\/     M anipulation  |                                                 |
\*---------------------------------------------------------------------------*/
FoamFile
{
    version     2.0;
    format      ascii;
    class       volVectorField;
    location    "4.2";
    object      U;
}
// * * * * * * * * * * * * * * * * * * * * * * * * * * * * * * * * * * * * * //

dimensions      [0 1 -1 0 0 0 0];


internalField   nonuniform List<vector> 
33000
(
(0.128987 0 -0.10635)
(0.215509 0 -0.076425)
(0.267576 0 0.0181079)
(0.240257 0 0.0388323)
(0.17426 0 0.0379133)
(0.144059 0 0.0269311)
(0.122291 0 0.0183339)
(0.105117 0 0.0134929)
(0.0916075 0 0.0106575)
(0.0805525 0 0.00874416)
(0.0713052 0 0.007241)
(0.0634579 0 0.00601681)
(0.0567328 0 0.00521271)
(0.0506511 0 0.00489078)
(0.044695 0 0.00523691)
(0.0381658 0 0.00559207)
(0.0315396 0 0.00530888)
(0.0254947 0 0.00431094)
(0.0208877 0 0.00341906)
(0.0166552 0 0.00329584)
(0.0123392 0 0.00368149)
(0.00726694 0 0.00430652)
(0.00184834 0 0.00463648)
(-0.00378921 0 0.00484177)
(-0.00941695 0 0.00471271)
(-0.0150532 0 0.00404925)
(-0.0198811 0 0.00332965)
(-0.023949 0 0.00321226)
(-0.0282434 0 0.00389109)
(-0.033275 0 0.00468798)
(-0.0388432 0 0.00448549)
(-0.0436227 0 0.00332874)
(-0.0472822 0 0.00258568)
(-0.0507796 0 0.00298994)
(-0.0551446 0 0.00419149)
(-0.0606595 0 0.00502511)
(-0.0665487 0 0.00478249)
(-0.0715994 0 0.00337188)
(-0.0748706 0 0.002386)
(-0.0777851 0 0.00233283)
(-0.081208 0 0.00328577)
(-0.0856802 0 0.003973)
(-0.0906459 0 0.00391557)
(-0.0952891 0 0.0034788)
(-0.0992289 0 0.00278007)
(-0.102371 0 0.00231278)
(-0.105356 0 0.00250817)
(-0.108585 0 0.00266268)
(-0.112115 0 0.00280778)
(-0.115652 0 0.00267927)
(-0.118799 0 0.00229212)
(-0.121321 0 0.0021609)
(-0.124252 0 0.00264648)
(-0.127878 0 0.00316604)
(-0.131999 0 0.00343283)
(-0.135743 0 0.00298228)
(-0.138727 0 0.00208208)
(-0.140787 0 0.00137096)
(-0.142861 0 0.00148956)
(-0.145461 0 0.00171311)
(-0.14797 0 0.0014398)
(-0.149532 0 0.000438121)
(-0.14969 0 -0.000964737)
(-0.148354 0 -0.0023287)
(-0.146223 0 -0.00315084)
(-0.144236 0 -0.00381519)
(-0.141523 0 -0.00510191)
(-0.137497 0 -0.0071185)
(-0.131622 0 -0.00954694)
(-0.123289 0 -0.0118874)
(-0.113164 0 -0.0135472)
(-0.102282 0 -0.0140672)
(-0.0913756 0 -0.0125685)
(-0.0810928 0 -0.00794685)
(-0.0713436 0 -0.00102134)
(-0.0624877 0 0.00599386)
(-0.0584377 0 0.00822523)
(-0.0573923 0 0.00478567)
(-0.0654323 0 -0.00303041)
(-0.0510879 0 -0.00418171)
(-0.0564039 0 0.00104782)
(-0.0542968 0 0.00256246)
(-0.0573598 0 0.0019198)
(-0.0569911 0 -0.000930041)
(-0.0599041 0 0.000378025)
(-0.0607691 0 0.000541697)
(-0.0607628 0 0.00118061)
(-0.0608649 0 0.000912064)
(-0.0612063 0 0.00104806)
(-0.0610139 0 -0.00062062)
(-0.0601715 0 -0.00119559)
(-0.0593062 0 -0.00222858)
(-0.0565041 0 -0.00354429)
(-0.0532297 0 -0.00547645)
(-0.0478785 0 -0.00834036)
(-0.0402563 0 -0.0103734)
(-0.0324219 0 -0.0117903)
(-0.0220263 0 -0.00951673)
(-0.014853 0 -0.00479435)
(-0.00776429 0 0.00251558)
(-0.00871315 0 0.00664283)
(-0.00843283 0 0.00709273)
(-0.0121375 0 0.00242764)
(-0.0127212 0 -0.00145212)
(-0.015742 0 -0.000842594)
(-0.0175944 0 -0.0002005)
(-0.018327 0 0.00142925)
(-0.0188877 0 0.00173912)
(-0.0199364 0 0.00221141)
(-0.0211227 0 0.00128922)
(-0.0220097 0 0.00051924)
(-0.0229989 0 0.000282448)
(-0.0237382 0 7.95873e-05)
(-0.0237603 0 -0.000308031)
(-0.0236938 0 -0.00143965)
(-0.0218554 0 -0.00216592)
(-0.0210143 0 -0.00330533)
(-0.0175401 0 -0.000841895)
(-0.0186594 0 0.00183439)
(-0.0186604 0 0.00304802)
(-0.0204085 0 0.00234505)
(-0.0210794 0 0.000453726)
(-0.0225012 0 0.000381018)
(-0.0239959 0 0.00036636)
(-0.0249504 0 0.000885534)
(-0.0258629 0 0.00103641)
(-0.0268647 0 0.000997789)
(-0.0277403 0 0.000709481)
(-0.0287275 0 0.000684806)
(-0.0296694 0 0.000617132)
(-0.030511 0 0.000695615)
(-0.0313559 0 0.000698078)
(-0.0321733 0 0.000680968)
(-0.032955 0 0.000612737)
(-0.0337361 0 0.000586909)
(-0.0345056 0 0.000558342)
(-0.035273 0 0.000557948)
(-0.036008 0 0.000555287)
(-0.0367347 0 0.000554076)
(-0.0374379 0 0.000538034)
(-0.0381172 0 0.000521256)
(-0.038771 0 0.000490234)
(-0.0393853 0 0.000469204)
(-0.0399833 0 0.00045892)
(-0.0405599 0 0.000441835)
(-0.0411057 0 0.000417112)
(-0.0416103 0 0.000379512)
(-0.0420788 0 0.000356881)
(-0.0425276 0 0.000341523)
(-0.0429538 0 0.000325846)
(-0.0433559 0 0.00030504)
(-0.0437177 0 0.000268388)
(-0.0440364 0 0.000237084)
(-0.0443254 0 0.000216879)
(-0.0445924 0 0.000198731)
(-0.0448373 0 0.000184056)
(-0.0450567 0 0.000160588)
(-0.0452349 0 0.000125839)
(-0.0453769 0 0.000100549)
(-0.0454933 0 8.44965e-05)
(-0.0455941 0 6.93754e-05)
(-0.0456643 0 3.85034e-05)
(-0.045694 0 9.93818e-06)
(-0.0456911 0 -1.14129e-05)
(-0.0456666 0 -2.6473e-05)
(-0.0456216 0 -4.81259e-05)
(-0.0455395 0 -8.24624e-05)
(-0.0454144 0 -0.000110371)
(-0.0452604 0 -0.000129335)
(-0.0450871 0 -0.000144308)
(-0.0448904 0 -0.000169204)
(-0.0446517 0 -0.000205635)
(-0.0443682 0 -0.000235628)
(-0.0440538 0 -0.000256917)
(-0.0437179 0 -0.000272669)
(-0.043357 0 -0.000295028)
(-0.0429589 0 -0.000328933)
(-0.042516 0 -0.000365014)
(-0.0420349 0 -0.000391266)
(-0.0415259 0 -0.000412098)
(-0.0409876 0 -0.000433333)
(-0.040414 0 -0.000463369)
(-0.0397974 0 -0.000501784)
(-0.0391379 0 -0.000533735)
(-0.0384464 0 -0.00055079)
(-0.0377359 0 -0.000571112)
(-0.0369841 0 -0.000613599)
(-0.0361727 0 -0.000660604)
(-0.0353101 0 -0.000688059)
(-0.0344241 0 -0.000705191)
(-0.0335043 0 -0.000735734)
(-0.0325406 0 -0.000769873)
(-0.0315375 0 -0.000810345)
(-0.0304873 0 -0.000844624)
(-0.0294025 0 -0.000869174)
(-0.0282802 0 -0.000901397)
(-0.0271066 0 -0.000931822)
(-0.025901 0 -0.000953533)
(-0.0246693 0 -0.000979636)
(-0.0234075 0 -0.00100902)
(-0.0221096 0 -0.00104165)
(-0.0207665 0 -0.0010744)
(-0.0193875 0 -0.00109141)
(-0.0180038 0 -0.00108963)
(-0.0166244 0 -0.00108629)
(-0.015235 0 -0.00109296)
(-0.0138348 0 -0.00110712)
(-0.0124167 0 -0.00112372)
(-0.0109908 0 -0.00112092)
(-0.00958509 0 -0.00109812)
(-0.00820978 0 -0.00107485)
(-0.00685305 0 -0.00106306)
(-0.00550858 0 -0.00105396)
(-0.00418324 0 -0.0010262)
(-0.00291249 0 -0.000979781)
(-0.00168777 0 -0.000952133)
(-0.000488737 0 -0.000927)
(0.0006712 0 -0.000900143)
(0.00180021 0 -0.00087593)
(0.00289494 0 -0.000836012)
(0.00392883 0 -0.000787051)
(0.00491176 0 -0.000757576)
(0.00586455 0 -0.000736702)
(0.0067892 0 -0.000717614)
(0.00768979 0 -0.000696544)
(0.00855783 0 -0.000663444)
(0.0093774 0 -0.000624087)
(0.0101544 0 -0.000598693)
(0.0109059 0 -0.000577791)
(0.0116266 0 -0.000553328)
(0.012315 0 -0.000532255)
(0.0129808 0 -0.000511105)
(0.0136127 0 -0.000478545)
(0.0142023 0 -0.0004511)
(0.014765 0 -0.00043186)
(0.0153021 0 -0.000411167)
(0.0158109 0 -0.00039034)
(0.0162952 0 -0.000369277)
(0.0167506 0 -0.000343828)
(0.0171741 0 -0.000321126)
(0.0175714 0 -0.000304965)
(0.0179476 0 -0.000287187)
(0.0182969 0 -0.000264136)
(0.0186179 0 -0.000241686)
(0.0189152 0 -0.000224214)
(0.0191913 0 -0.000211005)
(0.0194516 0 -0.00019683)
(0.0196886 0 -0.000173389)
(0.0198963 0 -0.000154624)
(0.0200839 0 -0.00014314)
(0.0202587 0 -0.000132013)
(0.020417 0 -0.000115057)
(0.0205524 0 -9.93398e-05)
(0.0206705 0 -8.81815e-05)
(0.0207746 0 -7.52e-05)
(0.0208603 0 -6.02813e-05)
(0.0209313 0 -5.01359e-05)
(0.0209889 0 -3.99849e-05)
(0.0210333 0 -3.10813e-05)
(0.0210666 0 -2.16778e-05)
(0.0210846 0 -8.93349e-06)
(0.0210898 0 4.08091e-07)
(0.0210861 0 6.36221e-06)
(0.0210746 0 1.19421e-05)
(0.0210548 0 1.96666e-05)
(0.0210228 0 2.91745e-05)
(0.0209797 0 3.83464e-05)
(0.020926 0 4.55887e-05)
(0.020866 0 4.81271e-05)
(0.0208042 0 5.01851e-05)
(0.0207372 0 5.45463e-05)
(0.0206643 0 6.08231e-05)
(0.0205822 0 6.94735e-05)
(0.0204909 0 7.37781e-05)
(0.0203962 0 7.55045e-05)
(0.0202984 0 7.70872e-05)
(0.0201987 0 8.00029e-05)
(0.020094 0 8.52221e-05)
(0.0199838 0 8.81597e-05)
(0.0198711 0 8.81884e-05)
(0.0197593 0 9.04526e-05)
(0.0196406 0 9.67852e-05)
(0.0195157 0 9.87553e-05)
(0.0193905 0 9.89105e-05)
(0.0192647 0 9.8702e-05)
(0.019139 0 9.93115e-05)
(0.0190116 0 0.000101441)
(0.0188818 0 0.000103928)
(0.018748 0 0.0001065)
(0.0186122 0 0.000107986)
(0.0184751 0 0.00010818)
(0.0183389 0 0.000106572)
(0.018204 0 0.000106815)
(0.0180673 0 0.000109354)
(0.0179265 0 0.000112246)
(0.0177846 0 0.000112439)
(0.0176428 0 0.000112545)
(0.0175002 0 0.000112045)
(0.0173584 0 0.000112178)
(0.0172152 0 0.000113965)
(0.0170702 0 0.000115323)
(0.0169243 0 0.000115776)
(0.0167776 0 0.000115188)
(0.0166325 0 0.000114769)
(0.0164857 0 0.000116429)
(0.0163377 0 0.000117897)
(0.0161881 0 0.000117769)
(0.0160403 0 0.000115845)
(0.0158936 0 0.000116697)
(0.0157439 0 0.000118526)
(0.0155932 0 0.000119643)
(0.0154417 0 0.000119255)
(0.0152914 0 0.000118245)
(0.0151411 0 0.000118619)
(0.0149903 0 0.000119671)
(0.014838 0 0.000120592)
(0.0146854 0 0.000119985)
(0.0145339 0 0.000119234)
(0.0143823 0 0.000120048)
(0.0142293 0 0.000121261)
(0.0140756 0 0.000121845)
(0.0139214 0 0.000120811)
(0.0137694 0 0.000119744)
(0.0136167 0 0.000120998)
(0.0134621 0 0.000122393)
(0.0133071 0 0.000122103)
(0.0131533 0 0.000120462)
(0.013001 0 0.000120674)
(0.0128468 0 0.000121844)
(0.0126921 0 0.00012224)
(0.0125369 0 0.000122512)
(0.0123819 0 0.000121948)
(0.0122278 0 0.000121205)
(0.0120741 0 0.000121039)
(0.0119204 0 0.000120948)
(0.011767 0 0.000121096)
(0.0116132 0 0.00012135)
(0.0114593 0 0.000121288)
(0.0113054 0 0.000120595)
(0.0111528 0 0.000119725)
(0.0110007 0 0.000120214)
(0.0108475 0 0.000120955)
(0.010694 0 0.000120881)
(0.0105407 0 0.000120714)
(0.0103877 0 0.000119863)
(0.0102363 0 0.000118936)
(0.0100851 0 0.000119166)
(0.00993339 0 0.00011956)
(0.00978156 0 0.00011975)
(0.00962978 0 0.000118511)
(0.00948029 0 0.000117518)
(0.00933049 0 0.000118055)
(0.00918008 0 0.000118304)
(0.00903012 0 0.000117994)
(0.0088805 0 0.000117024)
(0.00873255 0 0.000116439)
(0.0085843 0 0.000116912)
(0.00843576 0 0.000116764)
(0.00828809 0 0.000115851)
(0.00814141 0 0.000114879)
(0.00799558 0 0.000114721)
(0.00784937 0 0.000114847)
(0.00770397 0 0.000114477)
(0.00755886 0 0.00011396)
(0.00741465 0 0.000112989)
(0.0072718 0 0.000112334)
(0.00712907 0 0.000112161)
(0.00698663 0 0.000111967)
(0.00684494 0 0.00011156)
(0.00670369 0 0.000110897)
(0.00656373 0 0.000109691)
(0.00642508 0 0.000108934)
(0.0062871 0 0.000108433)
(0.00614982 0 0.000107828)
(0.00601344 0 0.00010678)
(0.00587854 0 0.000105977)
(0.00574422 0 0.000105498)
(0.00561057 0 0.000105088)
(0.00547776 0 0.000104454)
(0.00534576 0 0.000103476)
(0.00521525 0 0.00010212)
(0.00508628 0 0.000101056)
(0.00495821 0 0.000100468)
(0.00483101 0 9.97107e-05)
(0.00470455 0 9.90914e-05)
(0.00457899 0 9.80336e-05)
(0.00445484 0 9.73608e-05)
(0.00433161 0 9.57556e-05)
(0.00421022 0 9.51101e-05)
(0.00408949 0 9.4124e-05)
(0.00396958 0 9.37123e-05)
(0.00385123 0 9.12402e-05)
(0.00373515 0 9.06015e-05)
(0.00361976 0 8.94468e-05)
(0.00350461 0 8.92354e-05)
(0.00339218 0 8.67769e-05)
(0.00328017 0 8.72379e-05)
(0.00316966 0 8.50442e-05)
(0.00305991 0 8.48446e-05)
(0.00295261 0 8.20616e-05)
(0.00284601 0 8.19839e-05)
(0.00274185 0 7.95243e-05)
(0.00263811 0 7.95423e-05)
(0.00253635 0 7.80226e-05)
(0.00243477 0 7.71833e-05)
(0.00233527 0 7.66042e-05)
(0.00223642 0 7.41254e-05)
(0.00213903 0 7.54604e-05)
(0.00204399 0 7.15112e-05)
(0.0019484 0 7.68928e-05)
(0.00185572 0 7.03473e-05)
(0.00176268 0 7.6872e-05)
(0.00167308 0 6.72437e-05)
(0.00158412 0 7.39101e-05)
(0.00149563 0 6.37562e-05)
(0.00141131 0 7.20634e-05)
(0.00132719 0 6.54603e-05)
(0.00124546 0 7.29673e-05)
(0.00117007 0 5.92539e-05)
(0.0010922 0 6.24272e-05)
(0.00100742 0 4.31356e-05)
(0.0009397 0 5.75539e-05)
(0.000856915 0 7.0565e-05)
(0.00078759 0 8.72332e-05)
(0.000762584 0 6.57674e-05)
(0.000690416 0 4.26589e-05)
(0.000590109 0 -6.6513e-05)
(0.000575784 0 -3.62817e-05)
(0.000388134 0 0.000103385)
(0.00028867 0 0.000217365)
(-6.55104e-05 0 0.000268961)
(-0.000162917 0 0.000134539)
(-0.00034629 0 0.000136829)
(-0.00042751 0 9.4729e-05)
(-0.000547043 0 8.69146e-05)
(-0.000613455 0 7.9281e-05)
(-0.000709421 0 5.56533e-05)
(-0.000773254 0 6.34831e-05)
(-0.00085611 0 3.29005e-05)
(-0.000912675 0 5.4593e-05)
(-0.000980865 0 4.30679e-05)
(-0.00103571 0 6.8641e-05)
(-0.00105783 0 3.24533e-05)
(-0.00111324 0 3.33852e-05)
(-0.00118273 0 -5.97811e-05)
(-0.00119747 0 -1.66085e-05)
(-0.00132333 0 5.96958e-05)
(-0.00139576 0 0.000151564)
(-0.00162539 0 0.00016028)
(-0.0016928 0 8.32041e-05)
(-0.00180563 0 7.61126e-05)
(-0.00186658 0 4.68938e-05)
(-0.0019368 0 4.44974e-05)
(-0.00198785 0 2.41212e-05)
(-0.00204568 0 4.70161e-05)
(-0.00208427 0 1.78351e-05)
(-0.00213011 0 5.7133e-05)
(-0.00214786 0 5.36571e-06)
(-0.00217875 0 4.76766e-05)
(-0.00221531 0 -3.77669e-05)
(-0.00222734 0 2.86423e-05)
(-0.00227372 0 -1.27378e-06)
(-0.00228896 0 0.000101359)
(-0.00218485 0 1.60391e-05)
(-0.00218926 0 4.39395e-05)
(-0.00225898 0 -0.000328967)
(-0.00215054 0 -0.000227104)
(-0.00264048 0 -4.85911e-05)
(-0.00273211 0 0.000475401)
(-0.00398941 0 0.00086289)
(-0.00421039 0 0.000579127)
(-0.00479548 0 0.000402172)
(-0.00502326 0 0.000269224)
(-0.00527131 0 0.000197663)
(-0.00545547 0 0.00015198)
(-0.00561323 0 0.000123518)
(-0.00574849 0 0.000104976)
(-0.00586801 0 9.21857e-05)
(-0.00597552 0 8.28229e-05)
(-0.00607375 0 7.56699e-05)
(-0.00616446 0 6.98607e-05)
(-0.00624874 0 6.49931e-05)
(-0.00632762 0 6.08681e-05)
(-0.006402 0 5.7507e-05)
(-0.00647263 0 5.47057e-05)
(-0.00653992 0 5.21726e-05)
(-0.00660405 0 4.97215e-05)
(-0.00666514 0 4.74044e-05)
(-0.00672336 0 4.52268e-05)
(-0.00677898 0 4.32494e-05)
(-0.00683231 0 4.14562e-05)
(-0.00688359 0 3.98553e-05)
(-0.00693297 0 3.8395e-05)
(-0.00698052 0 3.69583e-05)
(-0.00702611 0 3.50949e-05)
(-0.00706977 0 3.3671e-05)
(-0.00711173 0 3.25617e-05)
(-0.0071519 0 3.10677e-05)
(-0.00719018 0 2.95281e-05)
(-0.00722656 0 2.79486e-05)
(-0.00726094 0 2.62636e-05)
(-0.00729329 0 2.45583e-05)
(-0.00732362 0 2.29287e-05)
(-0.00735213 0 2.14625e-05)
(-0.00737902 0 2.02404e-05)
(-0.00740455 0 1.93102e-05)
(-0.0074291 0 1.90134e-05)
(-0.0074527 0 1.7903e-05)
(-0.00747532 0 1.72585e-05)
(-0.00749724 0 1.68528e-05)
(-0.00751863 0 1.65423e-05)
(-0.00753963 0 1.63359e-05)
(-0.00756038 0 1.62184e-05)
(-0.00758093 0 1.61165e-05)
(-0.00760117 0 1.59193e-05)
(-0.00762095 0 1.55236e-05)
(-0.00764005 0 1.49153e-05)
(-0.0076583 0 1.41136e-05)
(-0.00767552 0 1.31829e-05)
(-0.00769163 0 1.21977e-05)
(-0.00770663 0 1.13092e-05)
(-0.00772077 0 1.07327e-05)
(-0.0077345 0 1.06473e-05)
(-0.00774833 0 1.09856e-05)
(-0.00776249 0 1.12954e-05)
(-0.00777655 0 1.11001e-05)
(-0.00778972 0 1.00529e-05)
(-0.00780151 0 8.69004e-06)
(-0.0078125 0 8.35733e-06)
(-0.00782403 0 9.17118e-06)
(-0.00783696 0 1.04211e-05)
(-0.00785093 0 1.17443e-05)
(-0.00786429 0 1.07148e-05)
(-0.00787574 0 8.70811e-06)
(-0.00788629 0 8.23702e-06)
(-0.0078978 0 9.27281e-06)
(-0.00791055 0 1.06121e-05)
(-0.0079226 0 9.45886e-06)
(-0.00793208 0 6.73412e-06)
(-0.00794031 0 6.1043e-06)
(-0.00794943 0 7.1106e-06)
(-0.00795875 0 7.16435e-06)
(-0.00796634 0 4.62459e-06)
(-0.00797198 0 4.06406e-06)
(-0.00797697 0 6.29793e-06)
(-0.00800613 0 8.34184e-06)
(-0.00804817 0 8.5965e-06)
(-0.00772728 0 1.09253e-05)
(-0.00882801 0 1.478e-05)
(-0.00660026 0 2.64614e-05)
(0.0847305 0 -0.252681)
(0.167769 0 -0.180291)
(0.199203 0 0.0117597)
(0.163203 0 0.0791675)
(0.132633 0 0.0769487)
(0.119685 0 0.0584412)
(0.106402 0 0.0432581)
(0.0943984 0 0.033298)
(0.084065 0 0.0269496)
(0.0751201 0 0.0225051)
(0.0673103 0 0.0191714)
(0.0601676 0 0.0165374)
(0.0536179 0 0.0147879)
(0.0473798 0 0.0138839)
(0.0415691 0 0.0142312)
(0.0358845 0 0.0147079)
(0.0304519 0 0.014187)
(0.0251986 0 0.0122042)
(0.0201546 0 0.0107092)
(0.0149788 0 0.0103998)
(0.00981158 0 0.0111022)
(0.00467267 0 0.0120831)
(-6.52145e-05 0 0.0125986)
(-0.00479701 0 0.0128437)
(-0.00948116 0 0.0129502)
(-0.0149732 0 0.0120062)
(-0.0205905 0 0.0107992)
(-0.0257976 0 0.0101452)
(-0.0302888 0 0.0109494)
(-0.0342891 0 0.0117679)
(-0.0384798 0 0.011637)
(-0.0430603 0 0.00964489)
(-0.0477357 0 0.00880593)
(-0.0522828 0 0.00961576)
(-0.0563886 0 0.0114512)
(-0.0607793 0 0.0127981)
(-0.0652627 0 0.0121056)
(-0.0699689 0 0.00951453)
(-0.0740974 0 0.00759119)
(-0.0778253 0 0.00759376)
(-0.0818116 0 0.00924661)
(-0.0855701 0 0.0108417)
(-0.0901097 0 0.0109165)
(-0.0949356 0 0.0100743)
(-0.0990207 0 0.00851842)
(-0.103005 0 0.00744754)
(-0.106569 0 0.00749689)
(-0.109914 0 0.00806782)
(-0.113505 0 0.00829742)
(-0.117133 0 0.00759129)
(-0.12031 0 0.00659592)
(-0.123194 0 0.00659431)
(-0.126348 0 0.00787277)
(-0.129691 0 0.00886853)
(-0.133078 0 0.00880827)
(-0.135785 0 0.00757569)
(-0.138289 0 0.00573044)
(-0.141021 0 0.00510163)
(-0.143711 0 0.00583251)
(-0.147031 0 0.00617288)
(-0.149778 0 0.00495155)
(-0.151587 0 0.00225961)
(-0.15284 0 -0.000994665)
(-0.153408 0 -0.00306798)
(-0.154246 0 -0.00378363)
(-0.155489 0 -0.00434988)
(-0.156211 0 -0.00597752)
(-0.156654 0 -0.00911211)
(-0.1564 0 -0.0129932)
(-0.155506 0 -0.017204)
(-0.153984 0 -0.0210986)
(-0.151015 0 -0.0243463)
(-0.146388 0 -0.0262411)
(-0.140076 0 -0.0260627)
(-0.131885 0 -0.0242383)
(-0.122715 0 -0.0198477)
(-0.111248 0 -0.0136155)
(-0.0974888 0 -0.00922971)
(-0.085436 0 -0.00728088)
(-0.0774395 0 -0.00401711)
(-0.0763175 0 0.00323194)
(-0.0773191 0 0.000158763)
(-0.0592158 0 0.00151694)
(-0.0618936 0 0.00439053)
(-0.058258 0 0.00552715)
(-0.0594873 0 0.00126947)
(-0.059607 0 -0.00111729)
(-0.0610922 0 7.40989e-05)
(-0.0624756 0 -0.000902403)
(-0.0634011 0 -0.00104839)
(-0.0624165 0 -0.0015475)
(-0.0623158 0 -0.00360387)
(-0.0622182 0 -0.00590662)
(-0.0618772 0 -0.00829465)
(-0.0618505 0 -0.0119875)
(-0.0608753 0 -0.0141354)
(-0.0597158 0 -0.0168927)
(-0.0572239 0 -0.0181953)
(-0.0521489 0 -0.0177498)
(-0.0459892 0 -0.0120052)
(-0.0351028 0 -0.00604311)
(-0.0270514 0 -0.00161542)
(-0.0178156 0 0.00397935)
(-0.0169863 0 0.00732632)
(-0.0145203 0 0.00859277)
(-0.0156458 0 0.00446042)
(-0.016296 0 0.000540243)
(-0.0180828 0 0.000747575)
(-0.020178 0 0.00126956)
(-0.0221421 0 0.00188209)
(-0.022635 0 0.00243945)
(-0.0231552 0 0.0023937)
(-0.0239719 0 0.0012567)
(-0.0246194 0 1.95383e-05)
(-0.0256908 0 -0.0012688)
(-0.0267289 0 -0.00245914)
(-0.0273952 0 -0.0032528)
(-0.0283037 0 -0.00252439)
(-0.0266237 0 -0.000488188)
(-0.0256754 0 -0.00023659)
(-0.0219496 0 0.00117829)
(-0.0228653 0 0.00279459)
(-0.0225461 0 0.00429423)
(-0.0236393 0 0.00363195)
(-0.0242335 0 0.00197401)
(-0.0256204 0 0.00200452)
(-0.0270602 0 0.00186991)
(-0.0279817 0 0.00221174)
(-0.0287741 0 0.00235911)
(-0.0296387 0 0.00220553)
(-0.0304208 0 0.00194642)
(-0.0313333 0 0.00192081)
(-0.0322023 0 0.00180938)
(-0.032985 0 0.00184564)
(-0.0337519 0 0.00184392)
(-0.0345146 0 0.00186915)
(-0.0352644 0 0.00180913)
(-0.0360038 0 0.00174415)
(-0.0367375 0 0.00170073)
(-0.0374558 0 0.00162911)
(-0.0381308 0 0.00158037)
(-0.0387838 0 0.00150059)
(-0.0394108 0 0.00143778)
(-0.0400153 0 0.00138935)
(-0.0405923 0 0.00131984)
(-0.041129 0 0.00123663)
(-0.0416317 0 0.00114609)
(-0.0421139 0 0.00108651)
(-0.0425721 0 0.00103436)
(-0.0429997 0 0.000974866)
(-0.0433904 0 0.000897233)
(-0.0437412 0 0.000799549)
(-0.044063 0 0.000715976)
(-0.0443619 0 0.00065887)
(-0.0446371 0 0.000604714)
(-0.0448844 0 0.000546425)
(-0.0450915 0 0.000464058)
(-0.0452634 0 0.000375546)
(-0.0454094 0 0.00030515)
(-0.0455312 0 0.000255109)
(-0.0456285 0 0.000202506)
(-0.0456948 0 0.000116736)
(-0.0457294 0 3.16003e-05)
(-0.0457299 0 -3.33915e-05)
(-0.0457051 0 -8.25633e-05)
(-0.0456541 0 -0.000149696)
(-0.0455698 0 -0.000245592)
(-0.0454478 0 -0.000329478)
(-0.0452953 0 -0.000386155)
(-0.0451215 0 -0.000436616)
(-0.044916 0 -0.000513641)
(-0.0446738 0 -0.000617701)
(-0.0443934 0 -0.000704865)
(-0.0440811 0 -0.000766209)
(-0.0437446 0 -0.000822574)
(-0.0433733 0 -0.000898005)
(-0.0429666 0 -0.000992508)
(-0.0425225 0 -0.00109007)
(-0.0420467 0 -0.00116444)
(-0.0415405 0 -0.00123433)
(-0.0409942 0 -0.00131571)
(-0.0404043 0 -0.00140787)
(-0.03978 0 -0.00150433)
(-0.039124 0 -0.0015923)
(-0.0384387 0 -0.00165209)
(-0.0377154 0 -0.00172702)
(-0.0369517 0 -0.00184229)
(-0.0361417 0 -0.00197313)
(-0.0352856 0 -0.0020611)
(-0.0343927 0 -0.00213115)
(-0.0334586 0 -0.00222626)
(-0.0324847 0 -0.00232027)
(-0.0314805 0 -0.00241663)
(-0.0304435 0 -0.0025116)
(-0.0293661 0 -0.00259716)
(-0.0282421 0 -0.00270792)
(-0.0270668 0 -0.00280847)
(-0.0258549 0 -0.00287652)
(-0.024614 0 -0.00293956)
(-0.0233564 0 -0.00301323)
(-0.0220664 0 -0.00310921)
(-0.0207364 0 -0.00320504)
(-0.0193769 0 -0.00325186)
(-0.0180091 0 -0.00325297)
(-0.0166325 0 -0.00326609)
(-0.0152386 0 -0.00329306)
(-0.0138335 0 -0.00332331)
(-0.0124235 0 -0.00334846)
(-0.0110232 0 -0.00333124)
(-0.00963716 0 -0.00327443)
(-0.00826727 0 -0.00322038)
(-0.00690934 0 -0.00318533)
(-0.00556824 0 -0.00314411)
(-0.00426141 0 -0.0030587)
(-0.00299194 0 -0.00294287)
(-0.00175743 0 -0.00285974)
(-0.000556262 0 -0.0027816)
(0.000611467 0 -0.00269977)
(0.00174102 0 -0.00262115)
(0.00283317 0 -0.0025134)
(0.00388119 0 -0.0023832)
(0.00488268 0 -0.00228743)
(0.00584505 0 -0.00221438)
(0.00677749 0 -0.00215295)
(0.00767766 0 -0.00208345)
(0.0085414 0 -0.00199133)
(0.00936945 0 -0.00188451)
(0.0101599 0 -0.00180486)
(0.0109166 0 -0.0017361)
(0.0116405 0 -0.00166251)
(0.0123325 0 -0.00159518)
(0.0129951 0 -0.00153047)
(0.0136276 0 -0.00144129)
(0.0142258 0 -0.00135983)
(0.014792 0 -0.00129737)
(0.0153293 0 -0.00123322)
(0.0158399 0 -0.00117033)
(0.0163249 0 -0.00110889)
(0.0167819 0 -0.0010373)
(0.0172104 0 -0.000969286)
(0.0176078 0 -0.000910244)
(0.017978 0 -0.000853527)
(0.0183251 0 -0.000789051)
(0.0186487 0 -0.000729516)
(0.0189501 0 -0.000677175)
(0.0192274 0 -0.000630728)
(0.0194828 0 -0.000585753)
(0.0197183 0 -0.000524725)
(0.0199301 0 -0.000466336)
(0.0201176 0 -0.000425461)
(0.0202891 0 -0.000392095)
(0.0204454 0 -0.000345821)
(0.0205814 0 -0.00029865)
(0.0206979 0 -0.000260447)
(0.0207981 0 -0.000223269)
(0.0208847 0 -0.000184716)
(0.0209581 0 -0.000152238)
(0.0210161 0 -0.00011943)
(0.0210602 0 -9.04878e-05)
(0.0210882 0 -5.85172e-05)
(0.0211018 0 -2.62134e-05)
(0.0211087 0 -2.47292e-06)
(0.0211067 0 1.83955e-05)
(0.0210942 0 3.76952e-05)
(0.0210715 0 6.25107e-05)
(0.0210373 0 8.99944e-05)
(0.0209934 0 0.000114263)
(0.0209409 0 0.000134243)
(0.0208822 0 0.000144072)
(0.0208191 0 0.000152749)
(0.0207498 0 0.000166508)
(0.020673 0 0.000182926)
(0.0205899 0 0.000204032)
(0.0205007 0 0.000218894)
(0.0204073 0 0.000227319)
(0.0203089 0 0.000233561)
(0.0202056 0 0.000240778)
(0.020099 0 0.000252504)
(0.01999 0 0.000261616)
(0.0198776 0 0.000264705)
(0.0197632 0 0.000270491)
(0.0196444 0 0.000286428)
(0.0195205 0 0.000293186)
(0.0193958 0 0.000295243)
(0.0192704 0 0.000295897)
(0.0191435 0 0.000297785)
(0.019014 0 0.000302569)
(0.0188826 0 0.000309781)
(0.0187491 0 0.000317414)
(0.0186143 0 0.000320853)
(0.0184788 0 0.000322101)
(0.0183421 0 0.000319845)
(0.0182047 0 0.000320869)
(0.0180658 0 0.000327025)
(0.0179253 0 0.000333303)
(0.017785 0 0.000333832)
(0.0176442 0 0.00033532)
(0.0175012 0 0.000335828)
(0.0173568 0 0.000336353)
(0.017213 0 0.000339406)
(0.0170688 0 0.000342471)
(0.016924 0 0.000344215)
(0.016778 0 0.000343863)
(0.0166311 0 0.000343679)
(0.0164834 0 0.000347372)
(0.0163365 0 0.00034959)
(0.0161885 0 0.000350107)
(0.0160401 0 0.00034663)
(0.0158915 0 0.000349352)
(0.0157415 0 0.000353456)
(0.0155915 0 0.000355132)
(0.0154414 0 0.000354952)
(0.0152905 0 0.000353855)
(0.015139 0 0.000354439)
(0.014988 0 0.000356534)
(0.0148364 0 0.000358399)
(0.0146848 0 0.000357871)
(0.0145323 0 0.00035708)
(0.0143795 0 0.000358778)
(0.0142267 0 0.000360792)
(0.014074 0 0.000362015)
(0.0139208 0 0.000360566)
(0.0137679 0 0.000358888)
(0.0136138 0 0.000362177)
(0.0134594 0 0.000364161)
(0.0133058 0 0.000363331)
(0.013152 0 0.000360433)
(0.0129983 0 0.000361091)
(0.012844 0 0.000363753)
(0.0126896 0 0.000364695)
(0.0125351 0 0.000365002)
(0.0123811 0 0.000364012)
(0.0122269 0 0.000362583)
(0.0120728 0 0.00036199)
(0.0119188 0 0.000361707)
(0.0117652 0 0.000361794)
(0.0116115 0 0.000362353)
(0.0114579 0 0.000362311)
(0.0113044 0 0.000361026)
(0.011151 0 0.000359181)
(0.0109977 0 0.000359677)
(0.0108449 0 0.000361009)
(0.0106919 0 0.000361176)
(0.0105389 0 0.00036056)
(0.0103866 0 0.000358587)
(0.0102346 0 0.00035649)
(0.0100828 0 0.000356905)
(0.00993097 0 0.000357386)
(0.00977968 0 0.000357359)
(0.00962862 0 0.000354863)
(0.00947805 0 0.000352698)
(0.00932752 0 0.000353718)
(0.00917728 0 0.000353666)
(0.00902777 0 0.000352753)
(0.00887834 0 0.00035059)
(0.00872955 0 0.000348924)
(0.00858105 0 0.00034952)
(0.00843328 0 0.000348672)
(0.00828604 0 0.000346713)
(0.00813884 0 0.000344731)
(0.00799175 0 0.000344188)
(0.00784544 0 0.000343417)
(0.00770062 0 0.000341941)
(0.00755578 0 0.000340717)
(0.00741156 0 0.000338006)
(0.00726811 0 0.00033643)
(0.00712478 0 0.00033587)
(0.00698253 0 0.000334503)
(0.00684123 0 0.000332961)
(0.00670034 0 0.000330992)
(0.00656049 0 0.00032803)
(0.00642143 0 0.000325724)
(0.00628338 0 0.000324051)
(0.00614612 0 0.000322192)
(0.00600947 0 0.000319464)
(0.00587396 0 0.000317043)
(0.00573908 0 0.000315556)
(0.00560561 0 0.000313594)
(0.00547321 0 0.000311651)
(0.00534157 0 0.000309032)
(0.0052108 0 0.000305622)
(0.00508126 0 0.000302866)
(0.00495269 0 0.000300666)
(0.00482538 0 0.000298908)
(0.00469858 0 0.000296943)
(0.00457312 0 0.000294385)
(0.00444914 0 0.000291373)
(0.0043261 0 0.000288723)
(0.00420418 0 0.000285321)
(0.00408366 0 0.000284121)
(0.00396415 0 0.000280665)
(0.00384621 0 0.000277245)
(0.00372903 0 0.000273098)
(0.00361336 0 0.000272939)
(0.00349842 0 0.000268409)
(0.00338592 0 0.000265948)
(0.00327366 0 0.00026252)
(0.00316385 0 0.000261051)
(0.00305428 0 0.000256404)
(0.00294685 0 0.000253962)
(0.00284033 0 0.000249467)
(0.00273547 0 0.000247015)
(0.00263219 0 0.000243718)
(0.00252953 0 0.00024128)
(0.0024297 0 0.000239165)
(0.00232879 0 0.000234831)
(0.00223317 0 0.000234657)
(0.00213322 0 0.00022667)
(0.00204211 0 0.000228397)
(0.00194284 0 0.000218779)
(0.00185256 0 0.000221704)
(0.00175594 0 0.000210083)
(0.00166688 0 0.000213388)
(0.00157734 0 0.000205018)
(0.00149044 0 0.000207686)
(0.00141085 0 0.00019283)
(0.00132539 0 0.000194961)
(0.0012354 0 0.000174167)
(0.00115484 0 0.000181236)
(0.00106869 0 0.000193459)
(0.000997192 0 0.000196081)
(0.000969976 0 0.00017937)
(0.000891822 0 0.000168224)
(0.000782225 0 6.13301e-05)
(0.000707674 0 8.64496e-05)
(0.000513685 0 0.000228348)
(0.000402664 0 0.00024556)
(3.92022e-05 0 0.000353914)
(-3.63454e-05 0 0.00034733)
(-0.00022623 0 0.000495627)
(-0.000224904 0 0.000440917)
(-0.00034551 0 0.000306759)
(-0.000399437 0 0.000278246)
(-0.000499447 0 0.000221576)
(-0.000572374 0 0.000204397)
(-0.00066045 0 0.000176353)
(-0.000735746 0 0.00019508)
(-0.000809951 0 0.000166914)
(-0.000873064 0 0.000186493)
(-0.000903546 0 0.000140988)
(-0.000965777 0 0.000150791)
(-0.00105373 0 5.19715e-05)
(-0.00110919 0 8.91044e-05)
(-0.0012519 0 0.000162839)
(-0.00132674 0 0.000192738)
(-0.00157729 0 0.000237189)
(-0.00162418 0 0.000253074)
(-0.0017511 0 0.000323003)
(-0.0017472 0 0.000303913)
(-0.00182838 0 0.000203496)
(-0.00186951 0 0.000193134)
(-0.0019228 0 0.000162592)
(-0.00197785 0 0.000142601)
(-0.00199201 0 0.000149715)
(-0.00206043 0 0.000102531)
(-0.00207416 0 0.000116768)
(-0.00215639 0 4.22413e-05)
(-0.00216954 0 7.20957e-05)
(-0.00225635 0 5.69543e-05)
(-0.00225085 0 0.000112783)
(-0.00217258 0 6.44723e-05)
(-0.00215868 0 9.54681e-05)
(-0.0022589 0 -0.000232285)
(-0.00227653 0 -0.00017135)
(-0.00278498 0 6.68679e-05)
(-0.00296252 0 0.000259737)
(-0.00420995 0 0.000809231)
(-0.00445696 0 0.000924365)
(-0.00499012 0 0.00171604)
(-0.00507568 0 0.00131416)
(-0.00514063 0 0.00092705)
(-0.00525093 0 0.000726091)
(-0.00536839 0 0.000557821)
(-0.00549471 0 0.000453999)
(-0.00561873 0 0.00038078)
(-0.0057382 0 0.000329314)
(-0.00585098 0 0.000290901)
(-0.00595627 0 0.000261365)
(-0.00605439 0 0.000238348)
(-0.00614604 0 0.000219871)
(-0.00623183 0 0.000204101)
(-0.00631233 0 0.000190431)
(-0.00638819 0 0.000178945)
(-0.00645992 0 0.000169432)
(-0.00652787 0 0.000161242)
(-0.00659226 0 0.000153658)
(-0.00665328 0 0.000146397)
(-0.00671131 0 0.000139507)
(-0.00676676 0 0.000133209)
(-0.00681987 0 0.000127609)
(-0.00687092 0 0.000122622)
(-0.00692011 0 0.000118089)
(-0.00696754 0 0.000113792)
(-0.00701319 0 0.000109516)
(-0.00705727 0 0.000105093)
(-0.00709976 0 0.000100856)
(-0.00714032 0 9.65168e-05)
(-0.00717906 0 9.22084e-05)
(-0.00721619 0 8.7823e-05)
(-0.00725171 0 8.33069e-05)
(-0.00728563 0 7.85564e-05)
(-0.00731796 0 7.38818e-05)
(-0.00734882 0 6.95454e-05)
(-0.0073783 0 6.56345e-05)
(-0.00740646 0 6.21358e-05)
(-0.00743324 0 5.91395e-05)
(-0.00745848 0 5.66454e-05)
(-0.00748261 0 5.45216e-05)
(-0.00750603 0 5.26834e-05)
(-0.00752864 0 5.1156e-05)
(-0.00755052 0 4.99842e-05)
(-0.00757185 0 4.9169e-05)
(-0.00759269 0 4.85617e-05)
(-0.00761301 0 4.79031e-05)
(-0.00763272 0 4.69331e-05)
(-0.00765171 0 4.55e-05)
(-0.00766994 0 4.36399e-05)
(-0.00768741 0 4.14498e-05)
(-0.00770413 0 3.90279e-05)
(-0.00772003 0 3.64894e-05)
(-0.00773506 0 3.4153e-05)
(-0.00774933 0 3.25342e-05)
(-0.00776311 0 3.21355e-05)
(-0.00777674 0 3.27449e-05)
(-0.00779031 0 3.3151e-05)
(-0.00780354 0 3.20321e-05)
(-0.00781613 0 2.92339e-05)
(-0.00782822 0 2.65145e-05)
(-0.00784026 0 2.6293e-05)
(-0.00785292 0 2.9042e-05)
(-0.0078662 0 3.22746e-05)
(-0.00787867 0 3.21879e-05)
(-0.0078896 0 2.83026e-05)
(-0.00790001 0 2.48268e-05)
(-0.00791117 0 2.56243e-05)
(-0.00792323 0 2.906e-05)
(-0.0079346 0 2.97145e-05)
(-0.00794412 0 2.44242e-05)
(-0.00795302 0 1.98006e-05)
(-0.007963 0 2.04548e-05)
(-0.00797331 0 2.28292e-05)
(-0.00798226 0 2.0166e-05)
(-0.00799064 0 1.56824e-05)
(-0.00799986 0 1.67079e-05)