/*--------------------------------*- C++ -*----------------------------------*\
| =========                 |                                                 |
| \\      /  F ield         | OpenFOAM: The Open Source CFD Toolbox           |
|  \\    /   O peration     | Version:  v2006                                 |
|   \\  /    A nd           | Website:  www.openfoam.com                      |
|    \\/     M anipulation  |                                                 |
\*---------------------------------------------------------------------------*/
FoamFile
{
    version     2.0;
    format      ascii;
    class       surfaceScalarField;
    location    "8.9";
    object      alphaPhi0.water;
}
// * * * * * * * * * * * * * * * * * * * * * * * * * * * * * * * * * * * * * //

dimensions      [0 3 -1 0 0 0 0];
oriented        oriented;


internalField   nonuniform List<scalar> 
65390
(
1.52206e-05
-1.85019e-07
1.39954e-05
1.22789e-06
1.05225e-05
3.47536e-06
7.04672e-06
3.47791e-06
5.94568e-06
1.10268e-06
8.95618e-06
-3.00927e-06
1.49395e-05
-5.98241e-06
2.22559e-05
-7.31572e-06
3.00682e-05
-7.8119e-06
3.78319e-05
-7.76337e-06
4.44507e-05
-6.61882e-06
4.97296e-05
-5.27998e-06
5.40659e-05
-4.33826e-06
5.81123e-05
-4.10128e-06
6.24366e-05
-4.28221e-06
6.67814e-05
-4.31851e-06
7.02124e-05
-3.42482e-06
7.22164e-05
-2.00338e-06
7.29518e-05
-7.3541e-07
7.13502e-05
1.60166e-06
6.68256e-05
4.52455e-06
6.08911e-05
5.93458e-06
5.60032e-05
4.88785e-06
5.35063e-05
2.49695e-06
5.33317e-05
1.74536e-07
5.45642e-05
-1.23256e-06
5.63752e-05
-1.8111e-06
5.81026e-05
-1.72742e-06
5.89725e-05
-8.70078e-07
5.86224e-05
3.50109e-07
5.74029e-05
1.21937e-06
5.43501e-05
3.05268e-06
4.92781e-05
5.07192e-06
4.35644e-05
5.71351e-06
3.75279e-05
6.03629e-06
3.27017e-05
4.82601e-06
2.9188e-05
3.51179e-06
2.54807e-05
3.69961e-06
2.26612e-05
2.82247e-06
2.12179e-05
1.44598e-06
2.02123e-05
1.00557e-06
1.87928e-05
1.4186e-06
1.66315e-05
2.15409e-06
1.41644e-05
2.46715e-06
1.26059e-05
1.56385e-06
1.19679e-05
6.3818e-07
1.13602e-05
6.07653e-07
1.03148e-05
1.04395e-06
8.61814e-06
1.69201e-06
6.69272e-06
1.9267e-06
5.47731e-06
1.21841e-06
5.03348e-06
4.43884e-07
4.88579e-06
1.47706e-07
4.86925e-06
1.65585e-08
4.96185e-06
-9.25868e-08
4.99067e-06
-2.8805e-08
4.82069e-06
1.69998e-07
4.19223e-06
6.28448e-07
2.92229e-06
1.26978e-06
1.1145e-06
1.80705e-06
-7.88455e-07
1.90328e-06
-2.58762e-06
1.79819e-06
-4.14384e-06
1.55584e-06
-5.45433e-06
1.31048e-06
-6.50662e-06
1.05228e-06
-7.15326e-06
6.46653e-07
-7.20257e-06
4.93154e-08
-6.63221e-06
-5.70343e-07
-5.65387e-06
-9.78325e-07
-4.474e-06
-1.1798e-06
-3.15701e-06
-1.31657e-06
-1.72616e-06
-1.43016e-06
-1.44684e-07
-1.58075e-06
1.61209e-06
-1.7574e-06
3.50085e-06
-1.88904e-06
5.01916e-06
-1.51856e-06
5.62078e-06
-6.01203e-07
3.4976e-06
2.12286e-06
1.92373e-06
1.57358e-06
1.88245e-06
4.12751e-08
4.40178e-07
1.44228e-06
-5.36142e-07
9.76294e-07
-1.81595e-06
1.27949e-06
-2.65726e-06
8.41235e-07
-3.6455e-06
9.88187e-07
-4.36863e-06
7.23072e-07
-4.88842e-06
5.1974e-07
-5.34853e-06
4.60059e-07
-5.63607e-06
2.875e-07
-5.80946e-06
1.73563e-07
-5.87779e-06
6.91261e-08
-5.84489e-06
-3.21695e-08
-5.51498e-06
-3.30297e-07
-4.88541e-06
-6.30609e-07
-3.65958e-06
-1.22602e-06
-1.8472e-06
-1.81238e-06
4.75674e-07
-2.32287e-06
2.89917e-06
-2.4235e-06
5.14507e-06
-2.24596e-06
6.17246e-06
-1.02824e-06
6.13988e-06
3.17972e-08
5.68121e-06
4.58694e-07
4.84589e-06
8.35318e-07
4.15214e-06
6.93753e-07
3.27069e-06
8.81748e-07
2.67241e-06
5.98788e-07
2.35016e-06
3.22258e-07
2.01128e-06
3.38869e-07
1.57868e-06
4.32535e-07
1.11414e-06
4.64182e-07
6.50867e-07
4.63205e-07
1.95514e-07
4.55372e-07
-1.09406e-07
3.04945e-07
-2.25117e-07
1.15722e-07
-7.37731e-08
-1.51329e-07
2.42895e-07
-3.16681e-07
7.15139e-07
-4.7222e-07
8.29878e-07
-1.1472e-07
5.01802e-07
3.28154e-07
6.33162e-08
4.38537e-07
-4.51215e-07
5.14556e-07
-9.22934e-07
4.71775e-07
-1.53438e-06
6.11534e-07
-2.06764e-06
5.33279e-07
-2.49392e-06
4.25821e-07
-2.9182e-06
4.24266e-07
-3.31618e-06
3.9798e-07
-3.71678e-06
4.00589e-07
-4.14035e-06
4.23775e-07
-4.55021e-06
4.10479e-07
-4.94176e-06
3.91938e-07
-5.31873e-06
3.75594e-07
-5.66188e-06
3.43026e-07
-6.00521e-06
3.43319e-07
-6.34975e-06
3.44516e-07
-6.69417e-06
3.44406e-07
-7.02864e-06
3.34349e-07
-7.34783e-06
3.19169e-07
-7.65877e-06
3.11293e-07
-7.96401e-06
3.0647e-07
-8.26861e-06
3.0458e-07
-8.56255e-06
2.93961e-07
-8.8445e-06
2.80381e-07
-9.10622e-06
2.61696e-07
-9.35363e-06
2.47391e-07
-9.59389e-06
2.40237e-07
-9.82976e-06
2.36538e-07
-1.00611e-05
2.32429e-07
-1.02818e-05
2.18887e-07
-1.04771e-05
1.94947e-07
-1.06598e-05
1.82693e-07
-1.08367e-05
1.77313e-07
-1.10074e-05
1.71851e-07
-1.11698e-05
1.62345e-07
-1.13197e-05
1.49679e-07
-1.1459e-05
1.3774e-07
-1.15854e-05
1.26261e-07
-1.17034e-05
1.18054e-07
-1.18134e-05
1.09937e-07
-1.1914e-05
1.0082e-07
-1.20035e-05
8.99291e-08
-1.20824e-05
7.89371e-08
-1.21506e-05
6.80442e-08
-1.22096e-05
5.88919e-08
-1.22634e-05
5.38968e-08
-1.23111e-05
4.74892e-08
-1.2345e-05
3.37422e-08
-1.23644e-05
1.94351e-08
-1.23748e-05
1.04026e-08
-1.23808e-05
6.82715e-09
-1.23822e-05
2.49422e-09
-1.23751e-05
-8.94327e-09
-1.23496e-05
-2.56387e-08
-1.23115e-05
-3.80076e-08
-1.22636e-05
-4.74689e-08
-1.22079e-05
-5.37274e-08
-1.21529e-05
-5.49909e-08
-1.20936e-05
-5.93301e-08
-1.20259e-05
-6.98972e-08
-1.19441e-05
-8.18323e-08
-1.1848e-05
-9.60515e-08
-1.17377e-05
-1.09808e-07
-1.16184e-05
-1.18677e-07
-1.14927e-05
-1.25708e-07
-1.13619e-05
-1.30797e-07
-1.12299e-05
-1.33024e-07
-1.10883e-05
-1.41598e-07
-1.09303e-05
-1.57995e-07
-1.07568e-05
-1.73106e-07
-1.05725e-05
-1.83335e-07
-1.0384e-05
-1.88433e-07
-1.01899e-05
-1.94077e-07
-9.98727e-06
-2.03622e-07
-9.77007e-06
-2.17531e-07
-9.5343e-06
-2.35799e-07
-9.28084e-06
-2.53446e-07
-9.01282e-06
-2.67998e-07
-8.73809e-06
-2.74209e-07
-8.46543e-06
-2.71909e-07
-8.19005e-06
-2.75351e-07
-7.90318e-06
-2.86833e-07
-7.59715e-06
-3.06924e-07
-7.2745e-06
-3.22732e-07
-6.94767e-06
-3.26778e-07
-6.62427e-06
-3.23288e-07
-6.30539e-06
-3.18549e-07
-5.98619e-06
-3.19195e-07
-5.65847e-06
-3.27886e-07
-5.32629e-06
-3.32189e-07
-5.00401e-06
-3.22112e-07
-4.7047e-06
-2.99183e-07
-4.41157e-06
-2.92989e-07
-4.10659e-06
-3.05242e-07
-3.79892e-06
-3.07686e-07
-3.49767e-06
-3.01205e-07
-3.20525e-06
-2.92335e-07
-2.93149e-06
-2.73472e-07
-2.68307e-06
-2.48233e-07
-2.4446e-06
-2.38518e-07
-2.20565e-06
-2.3916e-07
-1.9636e-06
-2.42045e-07
-1.72766e-06
-2.35901e-07
-1.50098e-06
-2.26632e-07
-1.28979e-06
-2.11066e-07
-1.10169e-06
-1.88033e-07
-9.26409e-07
-1.75229e-07
-7.56584e-07
-1.69832e-07
-5.88323e-07
-1.68228e-07
-4.22981e-07
-1.6531e-07
-2.64766e-07
-1.58179e-07
-1.18367e-07
-1.46356e-07
7.7438e-09
-1.26075e-07
1.22509e-07
-1.1472e-07
2.33544e-07
-1.10997e-07
3.42577e-07
-1.08991e-07
4.49318e-07
-1.06707e-07
5.49895e-07
-1.00555e-07
6.4193e-07
-9.2012e-08
7.2619e-07
-8.42327e-08
8.04028e-07
-7.77885e-08
8.74293e-07
-7.0227e-08
9.35776e-07
-6.14693e-08
9.91827e-07
-5.6024e-08
1.04737e-06
-5.54711e-08
1.10472e-06
-5.72954e-08
1.16047e-06
-5.57235e-08
1.21328e-06
-5.27832e-08
1.25842e-06
-4.51325e-08
1.2921e-06
-3.36751e-08
1.32752e-06
-3.53631e-08
1.3693e-06
-4.17301e-08
1.41191e-06
-4.25884e-08
1.45328e-06
-4.13565e-08
1.49255e-06
-3.92805e-08
1.52657e-06
-3.40619e-08
1.55969e-06
-3.31058e-08
1.59592e-06
-3.61602e-08
1.63519e-06
-3.923e-08
1.67657e-06
-4.13822e-08
1.71779e-06
-4.12147e-08
1.75934e-06
-4.15985e-08
1.80184e-06
-4.24961e-08
1.84665e-06
-4.48041e-08
1.89569e-06
-4.89973e-08
1.9485e-06
-5.27941e-08
2.00253e-06
-5.4031e-08
2.05405e-06
-5.15549e-08
2.1047e-06
-5.0676e-08
2.1603e-06
-5.55517e-08
2.22243e-06
-6.21036e-08
2.28807e-06
-6.56342e-08
2.35588e-06
-6.78066e-08
2.42622e-06
-7.03277e-08
2.49816e-06
-7.19324e-08
2.56873e-06
-7.06426e-08
2.64047e-06
-7.17112e-08
2.71655e-06
-7.59577e-08
2.79708e-06
-8.04808e-08
2.88082e-06
-8.37042e-08
2.96697e-06
-8.61175e-08
3.05582e-06
-8.88185e-08
3.14703e-06
-9.11781e-08
3.23796e-06
-9.09397e-08
3.32827e-06
-9.0299e-08
3.42212e-06
-9.37916e-08
3.52009e-06
-9.79238e-08
3.62003e-06
-9.99187e-08
3.72123e-06
-1.01189e-07
3.82413e-06
-1.02883e-07
3.92809e-06
-1.03985e-07
4.03155e-06
-1.03526e-07
4.1356e-06
-1.04034e-07
4.24135e-06
-1.05698e-07
4.34871e-06
-1.0734e-07
4.45689e-06
-1.08189e-07
4.56566e-06
-1.08779e-07
4.6742e-06
-1.08578e-07
4.78158e-06
-1.07423e-07
4.88859e-06
-1.06977e-07
4.99531e-06
-1.06695e-07
5.10181e-06
-1.06516e-07
5.20806e-06
-1.06251e-07
5.31294e-06
-1.04933e-07
5.41562e-06
-1.02698e-07
5.51644e-06
-1.00822e-07
5.61596e-06
-9.94791e-08
5.71403e-06
-9.80567e-08
5.80976e-06
-9.57284e-08
5.90273e-06
-9.29512e-08
5.99295e-06
-9.01644e-08
6.08072e-06
-8.77262e-08
6.16576e-06
-8.50278e-08
6.24738e-06
-8.16062e-08
6.32503e-06
-7.7633e-08
6.39871e-06
-7.36559e-08
6.46882e-06
-7.00592e-08
6.53524e-06
-6.63883e-08
6.59762e-06
-6.23558e-08
6.65567e-06
-5.80166e-08
6.70915e-06
-5.34551e-08
6.75792e-06
-4.8739e-08
6.80194e-06
-4.39886e-08
6.84115e-06
-3.91804e-08
6.8753e-06
-3.41151e-08
6.90421e-06
-2.88905e-08
6.92803e-06
-2.37862e-08
6.94672e-06
-1.86541e-08
6.95995e-06
-1.32012e-08
6.96751e-06
-7.55961e-09
6.96965e-06
-2.11931e-09
6.96665e-06
3.02476e-09
6.95853e-06
8.14172e-09
6.9451e-06
1.34444e-08
6.92595e-06
1.91649e-08
6.90092e-06
2.50126e-08
6.8706e-06
3.03265e-08
6.83561e-06
3.49994e-08
6.79588e-06
3.97417e-08
6.7513e-06
4.45734e-08
6.70194e-06
4.93577e-08
6.64791e-06
5.40467e-08
6.58935e-06
5.85697e-08
6.52648e-06
6.28824e-08
6.45946e-06
6.70372e-08
6.38843e-06
7.10472e-08
6.31365e-06
7.47928e-08
6.23529e-06
7.83823e-08
6.15351e-06
8.17957e-08
6.06847e-06
8.50622e-08
5.98027e-06
8.82288e-08
5.889e-06
9.13011e-08
5.79486e-06
9.417e-08
5.69817e-06
9.67245e-08
5.5992e-06
9.90026e-08
5.49804e-06
1.01183e-07
5.39476e-06
1.03295e-07
5.28946e-06
1.05303e-07
5.18221e-06
1.07241e-07
5.07336e-06
1.0883e-07
4.96312e-06
1.10213e-07
4.85159e-06
1.11493e-07
4.73891e-06
1.12654e-07
4.62523e-06
1.13651e-07
4.51051e-06
1.147e-07
4.39463e-06
1.15868e-07
4.27781e-06
1.16818e-07
4.16052e-06
1.17296e-07
4.04326e-06
1.17278e-07
3.92605e-06
1.17246e-07
3.8084e-06
1.1769e-07
3.69013e-06
1.18296e-07
3.57199e-06
1.18158e-07
3.45449e-06
1.17528e-07
3.33757e-06
1.16929e-07
3.22102e-06
1.16563e-07
3.10475e-06
1.16269e-07
2.98888e-06
1.15859e-07
2.87345e-06
1.15421e-07
2.75823e-06
1.15199e-07
2.64354e-06
1.14676e-07
2.53014e-06
1.13384e-07
2.41839e-06
1.11732e-07
2.30758e-06
1.10794e-07
2.19755e-06
1.10005e-07
2.08844e-06
1.0909e-07
1.98035e-06
1.08075e-07
1.87346e-06
1.06876e-07
1.76804e-06
1.05404e-07
1.66413e-06
1.03898e-07
1.56132e-06
1.028e-07
1.45965e-06
1.01652e-07
1.35951e-06
1.00133e-07
1.26139e-06
9.8121e-08
1.16494e-06
9.64423e-08
1.07014e-06
9.47907e-08
9.77002e-07
9.31386e-08
8.85502e-07
9.14934e-08
7.95182e-07
9.03172e-08
7.06426e-07
8.87508e-08
6.19588e-07
8.68353e-08
5.34758e-07
8.48261e-08
4.52083e-07
8.26712e-08
3.7116e-07
8.09191e-08
2.91824e-07
7.93326e-08
2.1269e-07
7.91308e-08
1.34988e-07
7.7701e-08
5.87703e-08
7.62186e-08
-1.42608e-08
7.30325e-08
-8.69359e-08
7.26776e-08
-1.5802e-07
7.10877e-08
-2.27882e-07
6.98674e-08
-2.95669e-07
6.77913e-08
-3.60107e-07
6.44427e-08
-4.2434e-07
6.42381e-08
-4.84977e-07
6.06418e-08
-5.43895e-07
5.89217e-08
-6.00384e-07
5.64918e-08
-6.49751e-07
4.93684e-08
-6.99338e-07
4.95888e-08
-7.55901e-07
5.65623e-08
-8.03633e-07
4.77319e-08
-8.53963e-07
5.03284e-08
-9.0127e-07
4.73051e-08
-9.04066e-07
2.79297e-09
-9.17779e-07
1.37088e-08
-9.80943e-07
6.31596e-08
-1.00102e-06
2.00744e-08
-1.10006e-06
9.90253e-08
-1.29318e-06
1.93117e-07
-1.59329e-06
3.00101e-07
-1.85826e-06
2.64962e-07
-2.00218e-06
1.43909e-07
-2.13483e-06
1.32636e-07
-2.22323e-06
8.83924e-08
-2.30217e-06
7.89354e-08
-2.36851e-06
6.63279e-08
-2.43097e-06
6.24523e-08
-2.48636e-06
5.53789e-08
-2.53227e-06
4.59027e-08
-2.56645e-06
3.41701e-08
-2.6003e-06
3.38387e-08
-2.59927e-06
-1.02792e-09
-2.61867e-06
1.9405e-08
-2.6799e-06
6.12188e-08
-2.68079e-06
8.84645e-10
-2.71025e-06
2.94541e-08
-2.76911e-06
5.88596e-08
-2.8516e-06
8.2495e-08
-2.8303e-06
-2.13019e-08
-2.70954e-06
-1.20763e-07
-2.64549e-06
-6.40479e-08
-2.59455e-06
-5.09469e-08
-2.56531e-06
-2.92327e-08
-2.54746e-06
-1.78487e-08
-2.53678e-06
-1.06888e-08
-2.5325e-06
-4.28079e-09
-2.52791e-06
-4.59182e-09
-2.51276e-06
-1.51638e-08
-2.51548e-06
2.72021e-09
-2.50053e-06
-1.49631e-08
-2.49275e-06
-7.78521e-09
-2.50609e-06
1.33324e-08
-2.41986e-06
-8.6238e-08
-2.34198e-06
-7.78906e-08
-2.44137e-06
9.93841e-08
-2.41316e-06
-2.82114e-08
-2.61113e-06
1.9797e-07
-2.94882e-06
3.37685e-07
-3.90147e-06
9.52642e-07
-4.74178e-06
8.40297e-07
-4.92943e-06
1.87641e-07
-4.94314e-06
1.36948e-08
-4.81631e-06
-1.2684e-07
-4.68364e-06
-1.32634e-07
-4.5906e-06
-9.29589e-08
-4.55694e-06
-3.36566e-08
-4.55422e-06
-2.73102e-09
-4.56705e-06
1.27969e-08
-4.58523e-06
1.81518e-08
-4.62113e-06
3.59566e-08
-4.67244e-06
5.13573e-08
-4.72782e-06
5.53979e-08
-4.78635e-06
5.85477e-08
-4.84263e-06
5.62498e-08
-4.90067e-06
5.80257e-08
-4.96871e-06
6.80729e-08
-5.04409e-06
7.53848e-08
-5.11797e-06
7.38917e-08
-5.19257e-06
7.45938e-08
-5.27112e-06
7.85423e-08
-5.35341e-06
8.22871e-08
-5.43342e-06
7.99848e-08
-5.51039e-06
7.69661e-08
-5.59119e-06
8.08059e-08
-5.68073e-06
8.95629e-08
-5.77418e-06
9.34485e-08
-5.8688e-06
9.46212e-08
-5.9614e-06
9.25817e-08
-6.05369e-06
9.22841e-08
-6.14664e-06
9.2939e-08
-6.23829e-06
9.16528e-08
-6.33154e-06
9.32471e-08
-6.42973e-06
9.8189e-08
-6.53272e-06
1.03011e-07
-6.6357e-06
1.02977e-07
-6.73359e-06
9.78906e-08
-6.82523e-06
9.16365e-08
-6.91203e-06
8.67818e-08
-6.99805e-06
8.60224e-08
-7.08414e-06
8.61112e-08
-7.17258e-06
8.84393e-08
-7.26013e-06
8.7548e-08
-7.34557e-06
8.54407e-08
-7.43131e-06
8.57214e-08
-7.51596e-06
8.46204e-08
-7.59717e-06
8.12025e-08
-7.67546e-06
7.8279e-08
-7.75347e-06
7.79944e-08
-7.83304e-06
7.95636e-08
-7.91479e-06
8.17464e-08
-7.99806e-06
8.32719e-08
-8.08105e-06
8.29853e-08
-8.16218e-06
8.11262e-08
-8.24065e-06
7.84535e-08
-8.31623e-06
7.55758e-08
-8.3895e-06
7.32785e-08
-8.46107e-06
7.15747e-08
-8.5314e-06
7.03353e-08
-8.60071e-06
6.93095e-08
-8.66892e-06
6.82139e-08
-8.73568e-06
6.6764e-08
-8.80059e-06
6.49083e-08
-8.8639e-06
6.33024e-08
-8.92586e-06
6.196e-08
-8.98786e-06
6.19951e-08
-9.04905e-06
6.11847e-08
-9.10976e-06
6.07105e-08
-9.16774e-06
5.79706e-08
-9.22499e-06
5.72418e-08
-9.28182e-06
5.682e-08
-9.33831e-06
5.64853e-08
-9.39398e-06
5.56747e-08
-9.44903e-06
5.50518e-08
-9.50342e-06
5.43964e-08
-9.55685e-06
5.34314e-08
-9.60231e-06
4.54533e-08
-9.6447e-06
4.23971e-08
-9.67321e-06
2.8515e-08
-9.69907e-06
2.58711e-08
4.10563e-09
1.57316e-05
-8.30977e-07
1.57458e-05
1.20942e-06
1.56805e-05
3.53704e-06
1.56533e-05
3.50211e-06
1.55688e-05
1.18461e-06
1.82815e-05
-5.72403e-06
2.24741e-05
-1.01765e-05
2.71302e-05
-1.19731e-05
3.21029e-05
-1.27857e-05
3.70232e-05
-1.26853e-05
4.13434e-05
-1.09429e-05
4.5196e-05
-9.15839e-06
4.91627e-05
-8.31237e-06
5.34535e-05
-8.39656e-06
5.79334e-05
-8.74879e-06
6.21551e-05
-8.5204e-06
6.57002e-05
-6.96306e-06
6.73178e-05
-3.62026e-06
6.65521e-05
3.01617e-08
6.37967e-05
4.35694e-06
6.04286e-05
7.89265e-06
5.7381e-05
8.98211e-06
5.44554e-05
7.81346e-06
5.30863e-05
3.86595e-06
5.35127e-05
-2.51868e-07
5.49564e-05
-2.67636e-06
5.63939e-05
-3.24869e-06
5.74328e-05
-2.76639e-06
5.74958e-05
-9.33117e-07
5.58715e-05
1.97437e-06
5.28941e-05
4.19665e-06
4.94771e-05
6.46968e-06
4.59144e-05
8.63442e-06
4.17416e-05
9.88626e-06
3.73932e-05
1.03845e-05
3.35229e-05
8.696e-06
2.96015e-05
7.4305e-06
2.59817e-05
7.30639e-06
2.3334e-05
5.47488e-06
2.15436e-05
3.24003e-06
1.9977e-05
2.57214e-06
1.8384e-05
3.00794e-06
1.6636e-05
3.89242e-06
1.4935e-05
4.16818e-06
1.34155e-05
3.09059e-06
1.22816e-05
1.77324e-06
1.13734e-05
1.51551e-06
1.03439e-05
2.06932e-06
9.06654e-06
2.96696e-06
7.74711e-06
3.24747e-06
6.39896e-06
2.56901e-06
5.4547e-06
1.38832e-06
5.0014e-06
6.01036e-07
4.77627e-06
2.41709e-07
4.48639e-06
1.97303e-07
3.87746e-06
5.80149e-07
2.93958e-06
1.10785e-06
1.78977e-06
1.77751e-06
7.57108e-07
2.30118e-06
5.5572e-08
2.50867e-06
-5.23505e-07
2.48222e-06
-1.29406e-06
2.5686e-06
-2.55942e-06
2.81839e-06
-4.13195e-06
2.88122e-06
-5.67087e-06
2.59096e-06
-6.87484e-06
1.85057e-06
-7.66605e-06
8.40472e-07
-7.93088e-06
-3.05559e-07
-7.91625e-06
-9.92907e-07
-7.90337e-06
-1.19133e-06
-8.14107e-06
-1.07635e-06
-8.68392e-06
-8.87273e-07
-9.29458e-06
-9.70134e-07
-9.54687e-06
-1.50744e-06
-8.97075e-06
-2.46824e-06
-7.469e-06
-3.02069e-06
-5.13117e-06
-2.93916e-06
-1.32698e-06
-1.68081e-06
1.1707e-06
-9.23762e-07
2.03827e-06
-8.26902e-07
1.10058e-06
2.38033e-06
-3.11475e-08
2.1083e-06
-1.57317e-08
1.26407e-06
-1.54357e-06
2.36897e-06
-2.453e-06
1.89753e-06
-3.58587e-06
1.85586e-06
-4.55643e-06
1.49023e-06
-5.32715e-06
1.23072e-06
-5.62645e-06
5.86805e-07
-6.07396e-06
6.21189e-07
-6.33428e-06
3.3015e-07
-6.62584e-06
2.60205e-07
-6.73875e-06
-2.17821e-07
-6.82211e-06
-5.4902e-07
-6.8194e-06
-1.22867e-06
-6.8577e-06
-1.77388e-06
-6.87906e-06
-2.30121e-06
-6.42592e-06
-2.87671e-06
-5.41213e-06
-3.25973e-06
-3.37441e-06
-3.06583e-06
-7.66351e-07
-2.57622e-06
1.6858e-06
-1.99346e-06
3.08296e-06
-5.6184e-07
3.5326e-06
2.44116e-07
3.71718e-06
6.97709e-07
3.4027e-06
9.13722e-07
2.90276e-06
8.22154e-07
2.1881e-06
1.05351e-06
1.37239e-06
1.24793e-06
7.90187e-07
1.04608e-06
4.9631e-07
7.57101e-07
1.58623e-07
7.93078e-07
-2.06208e-07
6.69763e-07
-6.04177e-07
5.1369e-07
-1.08833e-06
3.32838e-07
-1.50134e-06
9.64435e-08
-1.86544e-06
-1.08008e-07
-1.89418e-06
-8.59555e-08
-1.5847e-06
1.85243e-08
-1.10157e-06
-4.4585e-08
-9.24552e-07
3.37634e-07
-1.17384e-06
7.21012e-07
-1.47686e-06
9.14527e-07
-1.87503e-06
9.31471e-07
-2.31353e-06
8.63893e-07
-2.88352e-06
9.93982e-07
-3.37709e-06
8.91542e-07
-3.76447e-06
7.8801e-07
-4.15422e-06
8.13993e-07
-4.52623e-06
7.82898e-07
-4.90478e-06
7.701e-07
-5.29431e-06
7.64146e-07
-5.66103e-06
7.09446e-07
-6.00794e-06
6.90208e-07
-6.35336e-06
6.89936e-07
-6.69311e-06
6.84082e-07
-7.02512e-06
6.66212e-07
-7.34797e-06
6.41943e-07
-7.66547e-06
6.29706e-07
-7.97297e-06
6.14876e-07
-8.27253e-06
6.04149e-07
-8.5627e-06
5.84121e-07
-8.83955e-06
5.57244e-07
-9.10529e-06
5.25389e-07
-9.35882e-06
5.00898e-07
-9.60628e-06
4.88157e-07
-9.84486e-06
4.76743e-07
-1.00717e-05
4.59289e-07
-1.02836e-05
4.28983e-07
-1.04812e-05
3.91524e-07
-1.06695e-05
3.71015e-07
-1.08526e-05
3.60696e-07
-1.10256e-05
3.46014e-07
-1.11836e-05
3.2038e-07
-1.1327e-05
2.93034e-07
-1.14631e-05
2.72553e-07
-1.15929e-05
2.55672e-07
-1.17153e-05
2.4042e-07
-1.18278e-05
2.22779e-07
-1.19297e-05
2.0293e-07
-1.20188e-05
1.78864e-07
-1.20959e-05
1.55726e-07
-1.21633e-05
1.35269e-07
-1.22225e-05
1.18604e-07
-1.22759e-05
1.08187e-07
-1.23228e-05
9.37101e-08
-1.23579e-05
6.82202e-08
-1.23787e-05
4.02317e-08
-1.23893e-05
2.17389e-08
-1.23947e-05
1.31302e-08
-1.2393e-05
8.04059e-10
-1.23829e-05
-2.05309e-08
-1.23601e-05
-4.86649e-08
-1.23247e-05
-7.33872e-08
-1.22791e-05
-9.28735e-08
-1.22238e-05
-1.07867e-07
-1.21624e-05
-1.15235e-07
-1.20976e-05
-1.24166e-07
-1.20251e-05
-1.42383e-07
-1.19446e-05
-1.63717e-07
-1.18507e-05
-1.90821e-07
-1.17421e-05
-2.18538e-07
-1.16229e-05
-2.37884e-07
-1.14949e-05
-2.53222e-07
-1.13597e-05
-2.64802e-07
-1.12216e-05
-2.70436e-07
-1.10793e-05
-2.85353e-07
-1.09247e-05
-3.12978e-07
-1.07553e-05
-3.42408e-07
-1.05712e-05
-3.66871e-07
-1.03749e-05
-3.83947e-07
-1.01705e-05
-3.98457e-07
-9.95932e-06
-4.14813e-07
-9.74163e-06
-4.36052e-07
-9.51139e-06
-4.66448e-07
-9.26437e-06
-5.0054e-07
-9.00277e-06
-5.29307e-07
-8.73206e-06
-5.43843e-07
-8.45567e-06
-5.48251e-07
-8.172e-06
-5.58997e-07
-7.87903e-06
-5.80036e-07
-7.57476e-06
-6.11779e-07
-7.26255e-06
-6.35063e-07
-6.94639e-06
-6.42682e-07
-6.62966e-06
-6.39531e-07
-6.30866e-06
-6.39485e-07
-5.98267e-06
-6.45131e-07
-5.65618e-06
-6.54725e-07
-5.33336e-06
-6.54998e-07
-5.01912e-06
-6.3604e-07
-4.71247e-06
-6.05551e-07
-4.4088e-06
-5.96627e-07
-4.10458e-06
-6.09737e-07
-3.8022e-06
-6.10093e-07
-3.50715e-06
-5.96235e-07
-3.22134e-06
-5.78074e-07
-2.9469e-06
-5.47627e-07
-2.68713e-06
-5.0782e-07
-2.43804e-06
-4.876e-07
-2.19692e-06
-4.8028e-07
-1.95936e-06
-4.79688e-07
-1.72921e-06
-4.65995e-07
-1.50886e-06
-4.46936e-07
-1.29827e-06
-4.21512e-07
-1.10026e-06
-3.85917e-07
-9.15502e-07
-3.59935e-07
-7.42563e-07
-3.42716e-07
-5.77172e-07
-3.33634e-07
-4.16967e-07
-3.25478e-07
-2.63953e-07
-3.11147e-07
-1.20543e-07
-2.89707e-07
9.84805e-09
-2.56408e-07
1.30165e-07
-2.34985e-07
2.45098e-07
-2.25882e-07
3.56366e-07
-2.20212e-07
4.62483e-07
-2.12751e-07
5.62119e-07
-2.00132e-07
6.53952e-07
-1.8379e-07
7.36044e-07
-1.66271e-07
8.08334e-07
-1.50017e-07
8.74541e-07
-1.36427e-07
9.38107e-07
-1.24999e-07
1.00122e-06
-1.19082e-07
1.06167e-06
-1.15824e-07
1.11739e-06
-1.12913e-07
1.16863e-06
-1.06895e-07
1.21537e-06
-9.94742e-08
1.2574e-06
-8.7173e-08
1.29706e-06
-7.33222e-08
1.33643e-06
-7.46368e-08
1.37683e-06
-8.20441e-08
1.4166e-06
-8.23151e-08
1.45344e-06
-7.81684e-08
1.48891e-06
-7.47394e-08
1.52433e-06
-6.95356e-08
1.56154e-06
-7.0298e-08
1.60048e-06
-7.50891e-08
1.64021e-06
-7.88845e-08
1.67887e-06
-7.9988e-08
1.71556e-06
-7.7902e-08
1.75462e-06
-8.06629e-08
1.79866e-06
-8.65687e-08
1.84575e-06
-9.18963e-08
1.89461e-06
-9.78114e-08
1.94524e-06
-1.03427e-07
1.99697e-06
-1.05776e-07
2.04836e-06
-1.03015e-07
2.1016e-06
-1.03912e-07
2.15857e-06
-1.12471e-07
2.21995e-06
-1.23412e-07
2.28428e-06
-1.29939e-07
2.35055e-06
-1.34053e-07
2.4184e-06
-1.38152e-07
2.48872e-06
-1.42254e-07
2.56186e-06
-1.43806e-07
2.63718e-06
-1.47002e-07
2.71438e-06
-1.53035e-07
2.7936e-06
-1.59592e-07
2.87562e-06
-1.65655e-07
2.9607e-06
-1.71149e-07
3.04891e-06
-1.76978e-07
3.13939e-06
-1.81612e-07
3.23045e-06
-1.8202e-07
3.32279e-06
-1.82623e-07
3.41769e-06
-1.88605e-07
3.51553e-06
-1.95684e-07
3.61507e-06
-1.99425e-07
3.7155e-06
-2.01603e-07
3.8174e-06
-2.04784e-07
3.9211e-06
-2.07695e-07
4.02589e-06
-2.08364e-07
4.13179e-06
-2.09954e-07
4.23864e-06
-2.12529e-07
4.34582e-06
-2.14467e-07
4.45314e-06
-2.15511e-07
4.56116e-06
-2.16818e-07
4.67e-06
-2.17489e-07
4.77926e-06
-2.16722e-07
4.8878e-06
-2.15538e-07
4.99477e-06
-2.13616e-07
5.10075e-06
-2.12455e-07
5.20662e-06
-2.12134e-07
5.31213e-06
-2.10486e-07
5.4162e-06
-2.06764e-07
5.5178e-06
-2.02375e-07
5.61717e-06
-1.98796e-07
5.71527e-06
-1.96174e-07
5.81193e-06
-1.92364e-07
5.90586e-06
-1.8686e-07
5.99647e-06
-1.80713e-07
6.08432e-06
-1.75511e-07
6.1695e-06
-1.70182e-07
6.25167e-06
-1.63733e-07
6.33015e-06
-1.56076e-07
6.40424e-06
-1.47698e-07
6.47436e-06
-1.40127e-07
6.54091e-06
-1.32899e-07
6.60359e-06
-1.24992e-07
6.66198e-06
-1.16359e-07
6.71571e-06
-1.07142e-07
6.76455e-06
-9.75304e-08
6.80857e-06
-8.79588e-08
6.8478e-06
-7.83706e-08
6.88212e-06
-6.83864e-08
6.91133e-06
-5.80704e-08
6.93533e-06
-4.77467e-08
6.95394e-06
-3.72255e-08
6.96701e-06
-2.62393e-08
6.97461e-06
-1.51366e-08
6.97689e-06
-4.38058e-09
6.9739e-06
6.03412e-09
6.96554e-06
1.65119e-08
6.95171e-06
2.72684e-08
6.93239e-06
3.8485e-08
6.90764e-06
4.97395e-08
6.87739e-06
6.05676e-08
6.84217e-06
7.02424e-08
6.80214e-06
7.97845e-08
6.75741e-06
8.93256e-08
6.70803e-06
9.87491e-08
6.65397e-06
1.08133e-07
6.59524e-06
1.17319e-07
6.53202e-06
1.26139e-07
6.46443e-06
1.34654e-07
6.39283e-06
1.42682e-07
6.3177e-06
1.49951e-07
6.23917e-06
1.56946e-07
6.15726e-06
1.63745e-07
6.07203e-06
1.70341e-07
5.98357e-06
1.76733e-07
5.89205e-06
1.82864e-07
5.7977e-06
1.88559e-07
5.70079e-06
1.93665e-07
5.60156e-06
1.98251e-07
5.50013e-06
2.02631e-07
5.39655e-06
2.06867e-07
5.29084e-06
2.10994e-07
5.18305e-06
2.1501e-07
5.07374e-06
2.18109e-07
4.96317e-06
2.20744e-07
4.85136e-06
2.23274e-07
4.73833e-06
2.2566e-07
4.62421e-06
2.27753e-07
4.50911e-06
2.29786e-07
4.3932e-06
2.31785e-07
4.27672e-06
2.33319e-07
4.15979e-06
2.34266e-07
4.04251e-06
2.34603e-07
3.92486e-06
2.34935e-07
3.80664e-06
2.35954e-07
3.68802e-06
2.36945e-07
3.56972e-06
2.36487e-07
3.45199e-06
2.35287e-07
3.33486e-06
2.34069e-07
3.21808e-06
2.33347e-07
3.10136e-06
2.3298e-07
2.98491e-06
2.3229e-07
2.86909e-06
2.31202e-07
2.75418e-06
2.30086e-07
2.64039e-06
2.28434e-07
2.52738e-06
2.26373e-07
2.41518e-06
2.23899e-07
2.30383e-06
2.22108e-07
2.19337e-06
2.20438e-07
2.08389e-06
2.18534e-07
1.97579e-06
2.16152e-07
1.86892e-06
2.13718e-07
1.76337e-06
2.10934e-07
1.65906e-06
2.08197e-07
1.55617e-06
2.05666e-07
1.45484e-06
2.02967e-07
1.35514e-06
1.99827e-07
1.25687e-06
1.96384e-07
1.16004e-06
1.93257e-07
1.06475e-06
1.90078e-07
9.71341e-07
1.86539e-07
8.79806e-07
1.83019e-07
7.90182e-07
1.79935e-07
7.01964e-07
1.76963e-07
6.15104e-07
1.7369e-07
5.29657e-07
1.7027e-07
4.46757e-07
1.65568e-07
3.6552e-07
1.62154e-07
2.86241e-07
1.58609e-07
2.07938e-07
1.57434e-07
1.32106e-07
1.53538e-07
5.71231e-08
1.51206e-07
-1.4932e-08
1.45094e-07
-8.71834e-08
1.44937e-07
-1.59841e-07
1.43754e-07
-2.30404e-07
1.40439e-07
-3.00435e-07
1.37832e-07
-3.65271e-07
1.29286e-07
-4.28403e-07
1.27378e-07
-4.82692e-07
1.14938e-07
-5.39714e-07
1.1595e-07
-6.04555e-07
1.21337e-07
-6.66229e-07
1.11044e-07
-7.26988e-07
1.10349e-07
-7.757e-07
1.05273e-07
-7.79557e-07
5.1587e-08
-7.96402e-07
6.71687e-08
-8.70988e-07
1.21886e-07
-9.43803e-07
7.56e-08
-1.08849e-06
1.58384e-07
-1.29407e-06
2.68728e-07
-1.60542e-06
3.31417e-07
-1.85961e-06
3.53205e-07
-1.98274e-06
3.16231e-07
-2.05114e-06
3.68485e-07
-2.08241e-06
2.96214e-07
-2.15692e-06
2.18402e-07
-2.21635e-06
1.92051e-07
-2.29006e-06
1.62085e-07
-2.34735e-06
1.36209e-07
-2.40273e-06
1.21695e-07
-2.44902e-06
1.08723e-07
-2.49878e-06
1.05128e-07
-2.52118e-06
6.82913e-08
-2.56156e-06
7.4539e-08
-2.64184e-06
1.14109e-07
-2.67903e-06
3.6157e-08
-2.72495e-06
6.53219e-08
-2.76332e-06
9.9576e-08
-2.82872e-06
6.62723e-08
-2.78919e-06
-1.00782e-08
-2.66461e-06
-6.5707e-08
-2.58116e-06
-9.53061e-10
-2.54734e-06
-5.51283e-08
-2.57334e-06
-9.47614e-08
-2.56255e-06
-7.48439e-08
-2.56922e-06
-4.42835e-08
-2.54691e-06
-5.15451e-08
-2.53312e-06
-3.16376e-08
-2.52161e-06
-2.22008e-08
-2.52582e-06
-7.5988e-11
-2.52222e-06
-8.20006e-09
-2.52107e-06
-1.63354e-08
-2.53763e-06
1.92641e-08
-2.45618e-06
-9.64153e-08
-2.38228e-06
-8.16937e-08
-2.45805e-06
8.9097e-08
-2.54205e-06
-2.24099e-09
-2.82985e-06
2.09902e-07
-3.12432e-06
3.93841e-07
-3.95914e-06
8.06594e-07
-4.53801e-06
7.76827e-07
-4.67209e-06
4.7176e-07
-4.55534e-06
8.35888e-07
-4.16813e-06
4.5308e-07
-4.08772e-06
1.0723e-07
-4.1061e-06
3.20342e-08
-4.18562e-06
-4.73427e-08
-4.24611e-06
-7.21665e-08
-4.28254e-06
-5.65428e-08
-4.31589e-06
-3.09563e-10
-4.35743e-06
3.882e-08
-4.40337e-06
5.87484e-08
-4.45536e-06
7.01667e-08
-4.50949e-06
9.01049e-08
-4.56282e-06
1.04726e-07
-4.61723e-06
1.09837e-07
-4.67387e-06
1.15224e-07
-4.73236e-06
1.1477e-07
-4.79844e-06
1.24137e-07
-4.86944e-06
1.3911e-07
-4.94149e-06
1.47472e-07
-5.01449e-06
1.46919e-07
-5.08838e-06
1.48514e-07
-5.16576e-06
1.55952e-07
-5.24405e-06
1.60606e-07
-5.32276e-06
1.58713e-07
-5.40404e-06
1.58266e-07
-5.48787e-06
1.64661e-07
-5.57329e-06
1.74992e-07
-5.66012e-06
1.80288e-07
-5.74859e-06
1.83095e-07
-5.83934e-06
1.83337e-07
-5.93003e-06
1.82964e-07
-6.0199e-06
1.82808e-07
-6.11091e-06
1.8266e-07
-6.20429e-06
1.86629e-07
-6.30002e-06
1.9391e-07
-6.39751e-06
2.00488e-07
-6.49368e-06
1.99141e-07
-6.5887e-06
1.929e-07
-6.68165e-06
1.84579e-07
-6.77336e-06
1.78491e-07
-6.86479e-06
1.77446e-07
-6.95546e-06
1.76788e-07
-7.04455e-06
1.7753e-07
-7.13167e-06
1.74669e-07
-7.2173e-06
1.71077e-07
-7.30228e-06
1.70701e-07
-7.38713e-06
1.69473e-07
-7.47152e-06
1.65599e-07
-7.55521e-06
1.61973e-07
-7.63809e-06
1.60872e-07
-7.72022e-06
1.61701e-07
-7.80113e-06
1.62673e-07
-7.88051e-06
1.62654e-07
-7.9586e-06
1.61084e-07
-8.03558e-06
1.58121e-07
-8.11146e-06
1.54335e-07
-8.1861e-06
1.50236e-07
-8.25905e-06
1.46236e-07
-8.33024e-06
1.42774e-07
-8.40003e-06
1.40127e-07
-8.46875e-06
1.38035e-07
-8.53627e-06
1.35744e-07
-8.6023e-06
1.32788e-07
-8.66669e-06
1.29304e-07
-8.72994e-06
1.26546e-07
-8.79241e-06
1.24436e-07
-8.85442e-06
1.23999e-07
-8.91507e-06
1.21836e-07
-8.97412e-06
1.19765e-07
-9.03213e-06
1.15982e-07
-9.08926e-06
1.14376e-07
-9.14621e-06
1.13788e-07
-9.20232e-06
1.12615e-07
-9.25695e-06
1.10336e-07
-9.31099e-06
1.09111e-07
-9.36501e-06
1.08448e-07
-9.41766e-06
1.06112e-07
-9.4719e-06
9.97157e-08
-9.524e-06
9.45234e-08
-9.58035e-06
8.48904e-08
-9.63604e-06
8.1551e-08
7.12712e-08
1.58362e-05
-1.47111e-06
1.6088e-05
9.59711e-07
1.6408e-05
3.2185e-06
1.69325e-05
2.97869e-06
1.87101e-05
-5.92124e-07
2.16219e-05
-8.63524e-06
2.47962e-05
-1.33504e-05
2.79812e-05
-1.51578e-05
3.09825e-05
-1.57869e-05
3.38063e-05
-1.55117e-05
3.59711e-05
-1.3131e-05
3.72366e-05
-1.04173e-05
3.87781e-05
-9.84743e-06
4.08391e-05
-1.04462e-05
4.31731e-05
-1.1078e-05
4.50325e-05
-1.03795e-05
4.57339e-05
-7.6645e-06
4.52379e-05
-3.12428e-06
4.35779e-05
1.69008e-06
4.24391e-05
5.4956e-06
4.27744e-05
7.55735e-06
4.39568e-05
7.79967e-06
4.54044e-05
6.36578e-06
4.62345e-05
3.03575e-06
4.61158e-05
-1.33267e-07
4.54866e-05
-2.04724e-06
4.4653e-05
-2.41509e-06
4.3359e-05
-1.47225e-06
4.13383e-05
1.08747e-06
3.91533e-05
4.1587e-06
3.65491e-05
6.8007e-06
3.40105e-05
9.00812e-06
3.17441e-05
1.09009e-05
2.98357e-05
1.17947e-05
2.87155e-05
1.15045e-05
2.68492e-05
1.05612e-05
2.41643e-05
1.00959e-05
2.21081e-05
9.37265e-06
2.07771e-05
6.80772e-06
1.9594e-05
4.42712e-06
1.8401e-05
3.76447e-06
1.72232e-05
4.17744e-06
1.60697e-05
5.04202e-06
1.49861e-05
5.25184e-06
1.38047e-05
4.27968e-06
1.27178e-05
2.86287e-06
1.17592e-05
2.47377e-06
1.07343e-05
3.08971e-06
9.57961e-06
4.12074e-06
8.34403e-06
4.48308e-06
6.93713e-06
3.97755e-06
5.67687e-06
2.64986e-06
4.67687e-06
1.60103e-06
3.8095e-06
1.10899e-06
2.85723e-06
1.14941e-06
1.75515e-06
1.68147e-06
6.18283e-07
2.24377e-06
-2.17409e-07
2.61282e-06
-5.25929e-07
2.60929e-06
-4.32733e-07
2.41608e-06
-3.5208e-07
2.40274e-06
-5.29032e-07
2.74684e-06
-1.34061e-06
3.63036e-06
-2.78712e-06
4.32784e-06
-4.44421e-06
4.2446e-06
-6.07938e-06
3.48156e-06
-7.499e-06
2.25941e-06
-8.44559e-06
6.40881e-07
-8.97768e-06
-4.60689e-07
-9.42366e-06
-7.43561e-07
-9.94436e-06
-5.53185e-07
-1.06154e-05
-2.16299e-07
-1.14454e-05
-1.40346e-07
-1.22939e-05
-6.64488e-07
-1.29486e-05
-1.81396e-06
-1.32854e-05
-2.68396e-06
-1.30055e-05
-3.21917e-06
-1.13257e-05
-3.36069e-06
-9.05791e-06
-3.19156e-06