/*--------------------------------*- C++ -*----------------------------------*\
| =========                 |                                                 |
| \\      /  F ield         | OpenFOAM: The Open Source CFD Toolbox           |
|  \\    /   O peration     | Version:  v2006                                 |
|   \\  /    A nd           | Website:  www.openfoam.com                      |
|    \\/     M anipulation  |                                                 |
\*---------------------------------------------------------------------------*/
FoamFile
{
    version     2.0;
    format      ascii;
    class       volScalarField;
    location    "8.9";
    object      k;
}
// * * * * * * * * * * * * * * * * * * * * * * * * * * * * * * * * * * * * * //

dimensions      [0 2 -2 0 0 0 0];


internalField   nonuniform List<scalar> 
33000
(
1.33338e-08
2.07914e-08
3.08088e-08
3.79211e-08
3.81224e-08
3.37065e-08
3.01066e-08
2.81459e-08
2.73152e-08
2.72962e-08
2.79538e-08
2.89782e-08
3.01114e-08
3.12147e-08
3.23176e-08
3.35192e-08
3.49327e-08
3.67333e-08
3.93846e-08
4.41167e-08
5.36316e-08
7.16643e-08
1.00121e-07
1.37145e-07
1.80456e-07
2.29803e-07
2.79899e-07
3.24475e-07
3.58685e-07
3.84435e-07
4.03598e-07
4.17304e-07
4.42923e-07
5.26606e-07
7.17707e-07
9.94159e-07
1.25744e-06
1.43188e-06
1.51749e-06
1.54797e-06
1.55661e-06
1.56151e-06
1.5644e-06
1.55792e-06
1.539e-06
1.51722e-06
1.50135e-06
1.49293e-06
1.48627e-06
1.47036e-06
1.43816e-06
1.39622e-06
1.3542e-06
1.32118e-06
1.30367e-06
1.30757e-06
1.33236e-06
1.37484e-06
1.42545e-06
1.47037e-06
1.49339e-06
1.48589e-06
1.44925e-06
1.38666e-06
1.30311e-06
1.20466e-06
1.09563e-06
9.76023e-07
8.69373e-07
7.86296e-07
7.20059e-07
6.67287e-07
6.25473e-07
5.92874e-07
5.69911e-07
5.57898e-07
5.57726e-07
5.83401e-07
6.17701e-07
6.32989e-07
6.80657e-07
7.17913e-07
7.78818e-07
8.39796e-07
9.1096e-07
9.64426e-07
1.00454e-06
1.02871e-06
1.03754e-06
1.02958e-06
1.00569e-06
9.6559e-07
9.05287e-07
8.38185e-07
7.62939e-07
6.87807e-07
6.27125e-07
5.83575e-07
5.59802e-07
5.62538e-07
5.91426e-07
5.98962e-07
6.04262e-07
6.10835e-07
6.2372e-07
6.34276e-07
6.37075e-07
6.33357e-07
6.26367e-07
6.17099e-07
6.06422e-07
5.93831e-07
5.76267e-07
5.50035e-07
5.18261e-07
4.90054e-07
4.75045e-07
4.83141e-07
5.05813e-07
5.09526e-07
5.14545e-07
5.17752e-07
5.25521e-07
5.34478e-07
5.41226e-07
5.46302e-07
5.50131e-07
5.52901e-07
5.56075e-07
5.59498e-07
5.62765e-07
5.65584e-07
5.67384e-07
5.68207e-07
5.68776e-07
5.69561e-07
5.70672e-07
5.71692e-07
5.72448e-07
5.72951e-07
5.73405e-07
5.7386e-07
5.74047e-07
5.73662e-07
5.72566e-07
5.70987e-07
5.69326e-07
5.67765e-07
5.66102e-07
5.63822e-07
5.60657e-07
5.56993e-07
5.53311e-07
5.49642e-07
5.45735e-07
5.41423e-07
5.36727e-07
5.31741e-07
5.26578e-07
5.21266e-07
5.15792e-07
5.10117e-07
5.04179e-07
4.97935e-07
4.91568e-07
4.85245e-07
4.78726e-07
4.71726e-07
4.64454e-07
4.57382e-07
4.50643e-07
4.43894e-07
4.36766e-07
4.29394e-07
4.22261e-07
4.15684e-07
4.09729e-07
4.04239e-07
3.9879e-07
3.93082e-07
3.87228e-07
3.81391e-07
3.75762e-07
3.70655e-07
3.66083e-07
3.61907e-07
3.57835e-07
3.53464e-07
3.49115e-07
3.45231e-07
3.41912e-07
3.38931e-07
3.35917e-07
3.32831e-07
3.29761e-07
3.26988e-07
3.24841e-07
3.23494e-07
3.2288e-07
3.22373e-07
3.21723e-07
3.2106e-07
3.20801e-07
3.21173e-07
3.22014e-07
3.23042e-07
3.24022e-07
3.24953e-07
3.26238e-07
3.281e-07
3.30209e-07
3.31859e-07
3.33323e-07
3.35184e-07
3.37407e-07
3.39954e-07
3.42822e-07
3.45661e-07
3.48149e-07
3.50479e-07
3.52941e-07
3.55686e-07
3.58636e-07
3.61777e-07
3.64849e-07
3.67569e-07
3.70033e-07
3.72374e-07
3.74767e-07
3.77246e-07
3.79792e-07
3.8221e-07
3.84169e-07
3.858e-07
3.87258e-07
3.88636e-07
3.89958e-07
3.91145e-07
3.92122e-07
3.92891e-07
3.93478e-07
3.93808e-07
3.93811e-07
3.93518e-07
3.9307e-07
3.92561e-07
3.91976e-07
3.91335e-07
3.904e-07
3.89012e-07
3.87482e-07
3.85972e-07
3.84405e-07
3.82759e-07
3.80965e-07
3.78911e-07
3.7669e-07
3.74385e-07
3.7203e-07
3.69609e-07
3.67064e-07
3.64393e-07
3.61598e-07
3.5872e-07
3.55824e-07
3.5293e-07
3.49972e-07
3.46831e-07
3.43506e-07
3.40124e-07
3.36752e-07
3.33367e-07
3.2995e-07
3.265e-07
3.22981e-07
3.19318e-07
3.15552e-07
3.11742e-07
3.07913e-07
3.04054e-07
3.00168e-07
2.96265e-07
2.92327e-07
2.88283e-07
2.84128e-07
2.79934e-07
2.75725e-07
2.71484e-07
2.672e-07
2.62873e-07
2.58478e-07
2.53986e-07
2.49401e-07
2.44722e-07
2.39939e-07
2.35063e-07
2.30135e-07
2.25178e-07
2.20204e-07
2.15229e-07
2.10263e-07
2.05317e-07
2.00391e-07
1.95462e-07
1.90514e-07
1.85555e-07
1.80621e-07
1.75751e-07
1.70987e-07
1.66364e-07
1.61912e-07
1.57659e-07
1.53619e-07
1.49786e-07
1.4615e-07
1.42718e-07
1.39503e-07
1.36512e-07
1.33746e-07
1.31205e-07
1.28893e-07
1.26809e-07
1.2495e-07
1.23307e-07
1.21868e-07
1.20621e-07
1.1956e-07
1.18672e-07
1.17939e-07
1.17341e-07
1.16864e-07
1.16498e-07
1.16232e-07
1.16057e-07
1.15958e-07
1.15917e-07
1.15921e-07
1.15958e-07
1.16011e-07
1.16069e-07
1.16123e-07
1.16169e-07
1.16206e-07
1.16233e-07
1.16249e-07
1.1625e-07
1.16233e-07
1.16197e-07
1.16143e-07
1.1607e-07
1.15975e-07
1.15854e-07
1.15706e-07
1.15527e-07
1.15319e-07
1.15081e-07
1.14812e-07
1.14514e-07
1.14188e-07
1.13832e-07
1.13446e-07
1.13033e-07
1.12593e-07
1.12126e-07
1.11634e-07
1.11121e-07
1.10584e-07
1.10026e-07
1.09445e-07
1.08845e-07
1.08229e-07
1.07596e-07
1.06942e-07
1.06266e-07
1.05569e-07
1.04854e-07
1.04121e-07
1.0337e-07
1.026e-07
1.01813e-07
1.01006e-07
1.00175e-07
9.93237e-08
9.8458e-08
9.75797e-08
9.6689e-08
9.57879e-08
9.48762e-08
9.39554e-08
9.30283e-08
9.20999e-08
9.11683e-08
9.02326e-08
8.92935e-08
8.83573e-08
8.74263e-08
8.65024e-08
8.55878e-08
8.46856e-08
8.37894e-08
8.2903e-08
8.20261e-08
8.11664e-08
8.03224e-08
7.95071e-08
7.87149e-08
7.79455e-08
7.71909e-08
7.64594e-08
7.57628e-08
7.50737e-08
7.44028e-08
7.37219e-08
7.30487e-08
7.23916e-08
7.17166e-08
7.10647e-08
7.03739e-08
6.96515e-08
6.89992e-08
6.83843e-08
6.76634e-08
6.70898e-08
6.60979e-08
6.49901e-08
6.44612e-08
6.39855e-08
6.29326e-08
6.36624e-08
6.45275e-08
6.77155e-08
6.86279e-08
7.0374e-08
7.09988e-08
7.17033e-08
7.18377e-08
7.19495e-08
7.1859e-08
7.18284e-08
7.16528e-08
7.15786e-08
7.15747e-08
7.10955e-08
7.07047e-08
7.02625e-08
6.84804e-08
6.69263e-08
6.46561e-08
6.35185e-08
6.21789e-08
6.26323e-08
6.3189e-08
6.38405e-08
6.42818e-08
6.47249e-08
6.50202e-08
6.52899e-08
6.51029e-08
6.50199e-08
6.49711e-08
6.44479e-08
6.4932e-08
6.40494e-08
6.23277e-08
6.24749e-08
6.17163e-08
5.89414e-08
6.09834e-08
6.22878e-08
7.31061e-08
7.65265e-08
8.26647e-08
8.77439e-08
9.43627e-08
1.01115e-07
1.08141e-07
1.1451e-07
1.20145e-07
1.25017e-07
1.29253e-07
1.32877e-07
1.35909e-07
1.38466e-07
1.40632e-07
1.42521e-07
1.44228e-07
1.45746e-07
1.47055e-07
1.48222e-07
1.4932e-07
1.50315e-07
1.51167e-07
1.51927e-07
1.52678e-07
1.53429e-07
1.54115e-07
1.54712e-07
1.55219e-07
1.5567e-07
1.56073e-07
1.5641e-07
1.56716e-07
1.57013e-07
1.57254e-07
1.57381e-07
1.57387e-07
1.57311e-07
1.57207e-07
1.57112e-07
1.57016e-07
1.56913e-07
1.56763e-07
1.56568e-07
1.56354e-07
1.56109e-07
1.5582e-07
1.55518e-07
1.55239e-07
1.54985e-07
1.54728e-07
1.54438e-07
1.54095e-07
1.537e-07
1.53266e-07
1.52813e-07
1.52353e-07
1.51894e-07
1.51436e-07
1.50976e-07
1.5051e-07
1.50033e-07
1.49549e-07
1.49068e-07
1.48597e-07
1.48144e-07
1.47688e-07
1.47235e-07
1.46756e-07
1.46319e-07
1.45873e-07
1.45475e-07
1.45045e-07
1.4466e-07
1.44328e-07
1.44015e-07
1.4279e-07
1.43769e-07
1.39243e-07
1.3145e-07
8.77076e-08
1.17989e-08
1.64273e-08
2.20836e-08
2.45868e-08
2.39401e-08
2.13541e-08
1.87477e-08
1.71968e-08
1.65452e-08
1.66299e-08
1.73742e-08
1.86734e-08
2.05139e-08
2.2917e-08
2.57491e-08
2.85855e-08
3.10819e-08
3.35503e-08
3.74564e-08
4.5264e-08
6.02037e-08
8.82928e-08
1.37788e-07
2.12e-07
3.00502e-07
3.98544e-07
4.99802e-07
5.91351e-07
6.93079e-07
8.85506e-07
1.12956e-06
1.26437e-06
1.2848e-06
1.26499e-06
1.25809e-06
1.27917e-06
1.24822e-06
1.14509e-06
9.49126e-07
6.9293e-07
5.27248e-07
4.98714e-07
5.29171e-07
5.27097e-07
4.33811e-07
3.20193e-07
2.85006e-07
3.13312e-07
3.58227e-07
3.61541e-07
2.93974e-07
2.02471e-07
1.44515e-07
1.13795e-07
9.96859e-08
1.06467e-07
1.32458e-07
1.81938e-07
2.41015e-07
2.85433e-07
2.96561e-07
2.86069e-07
2.62744e-07
2.31474e-07
1.92239e-07
1.48094e-07
1.09835e-07
9.75521e-08
1.02109e-07
1.14976e-07
1.36142e-07
1.65165e-07
1.9796e-07
2.26617e-07
2.45344e-07
2.61482e-07
2.82309e-07
3.16974e-07
3.5435e-07
3.84971e-07
4.21036e-07
4.76513e-07
4.75915e-07
4.46225e-07
4.22867e-07
3.88976e-07
3.62336e-07
3.19365e-07
2.4381e-07
1.80819e-07
1.4333e-07
1.25065e-07
1.23673e-07
1.35059e-07
1.54949e-07
1.81745e-07
2.1256e-07
2.45177e-07
2.66323e-07
2.84208e-07
2.77269e-07
2.52964e-07
2.00323e-07
1.44427e-07
1.25188e-07
8.91374e-08
6.05802e-08
4.89825e-08
4.50042e-08
4.24482e-08
4.14252e-08
4.34426e-08
4.44885e-08
4.76472e-08
5.23218e-08
5.37454e-08
5.09699e-08
4.69283e-08
4.67134e-08
4.74348e-08
4.74067e-08
4.47159e-08
4.79021e-08
4.26968e-08
3.77737e-08
3.76219e-08
3.6304e-08
3.59505e-08
3.63416e-08
3.56477e-08
3.5129e-08
3.4832e-08
3.40061e-08
3.38766e-08
3.40344e-08
3.4218e-08
3.41643e-08
3.39621e-08
3.38779e-08
3.38423e-08
3.39582e-08
3.39022e-08
3.36823e-08
3.33575e-08
3.30699e-08
3.29863e-08
3.30758e-08
3.31928e-08
3.31477e-08
3.2872e-08
3.27051e-08
3.27726e-08
3.2908e-08
3.30166e-08
3.30532e-08
3.30894e-08
3.31298e-08
3.3214e-08
3.33176e-08
3.34277e-08
3.35311e-08
3.36288e-08
3.37185e-08
3.3814e-08
3.39439e-08
3.40739e-08
3.41469e-08
3.41903e-08
3.42557e-08
3.43632e-08
3.44699e-08
3.45095e-08
3.44576e-08
3.43709e-08
3.43312e-08
3.43649e-08
3.44299e-08
3.44474e-08
3.43532e-08
3.414e-08
3.38552e-08
3.35677e-08
3.33408e-08
3.31971e-08
3.30914e-08
3.29427e-08
3.26848e-08
3.23343e-08
3.20005e-08
3.17577e-08
3.15768e-08
3.13705e-08
3.1066e-08
3.06601e-08
3.02083e-08
2.97971e-08
2.94947e-08
2.92892e-08
2.90824e-08
2.87525e-08
2.82796e-08
2.777e-08
2.73372e-08
2.69939e-08
2.66794e-08
2.63207e-08
2.58891e-08
2.5443e-08
2.5077e-08
2.47929e-08
2.4448e-08
2.39742e-08
2.3464e-08
2.30216e-08
2.26924e-08
2.24486e-08
2.22051e-08
2.18679e-08
2.14343e-08
2.09853e-08
2.05941e-08
2.03014e-08
2.00807e-08
1.98684e-08
1.96017e-08
1.92685e-08
1.89143e-08
1.85922e-08
1.83467e-08
1.8169e-08
1.80048e-08
1.78003e-08
1.75403e-08
1.72669e-08
1.70285e-08
1.68411e-08
1.6694e-08
1.65767e-08
1.64763e-08
1.63819e-08
1.62877e-08
1.61752e-08
1.60522e-08
1.59524e-08
1.59028e-08
1.59268e-08
1.60108e-08
1.60683e-08
1.60563e-08
1.60234e-08
1.60293e-08
1.60991e-08
1.62132e-08
1.63226e-08
1.63968e-08
1.64409e-08
1.64861e-08
1.65621e-08
1.66623e-08
1.67626e-08
1.68445e-08
1.68946e-08
1.69297e-08
1.69902e-08
1.71009e-08
1.72476e-08
1.73512e-08
1.73654e-08
1.73422e-08
1.73389e-08
1.73663e-08
1.74237e-08
1.75077e-08
1.75942e-08
1.76385e-08
1.76277e-08
1.75924e-08
1.75637e-08
1.75447e-08
1.75301e-08
1.75396e-08
1.75862e-08
1.76167e-08
1.75782e-08
1.75025e-08
1.74417e-08
1.74003e-08
1.73659e-08
1.73433e-08
1.73271e-08
1.72894e-08
1.72179e-08
1.71304e-08
1.70451e-08
1.69623e-08
1.68903e-08
1.68265e-08
1.67497e-08
1.66524e-08
1.65408e-08
1.64213e-08
1.63116e-08
1.62184e-08
1.61175e-08
1.59967e-08
1.58589e-08
1.57234e-08
1.55967e-08
1.54703e-08
1.5337e-08
1.52001e-08
1.50742e-08
1.49693e-08
1.48744e-08
1.47706e-08
1.46602e-08
1.45596e-08
1.44734e-08
1.43989e-08
1.43333e-08
1.42759e-08
1.4227e-08
1.41881e-08
1.41615e-08
1.41418e-08
1.41251e-08
1.41191e-08
1.41273e-08
1.41424e-08
1.41559e-08
1.41684e-08
1.41874e-08
1.42183e-08
1.42613e-08
1.43015e-08
1.43243e-08
1.43333e-08
1.43454e-08
1.43599e-08
1.43723e-08
1.43794e-08
1.43787e-08
1.43704e-08
1.43576e-08
1.43421e-08
1.43188e-08
1.42883e-08
1.4252e-08
1.42132e-08
1.41741e-08
1.41343e-08
1.40898e-08
1.4038e-08
1.39819e-08
1.3926e-08
1.38707e-08
1.38147e-08
1.37578e-08
1.36968e-08
1.36331e-08
1.35698e-08
1.3507e-08
1.34442e-08
1.33837e-08
1.33266e-08
1.32683e-08
1.32043e-08
1.3134e-08
1.3065e-08
1.30045e-08
1.2949e-08
1.28867e-08
1.28171e-08
1.27484e-08
1.26857e-08
1.26275e-08
1.25705e-08
1.25144e-08
1.24617e-08
1.24083e-08
1.23477e-08
1.2282e-08
1.22249e-08
1.21734e-08
1.21227e-08
1.2072e-08
1.2021e-08
1.19682e-08
1.19156e-08
1.18684e-08
1.18237e-08
1.17767e-08
1.1726e-08
1.16779e-08
1.1633e-08
1.15897e-08
1.15483e-08
1.15122e-08
1.14752e-08
1.1435e-08
1.13946e-08
1.13549e-08
1.13207e-08
1.12895e-08
1.12667e-08
1.12379e-08
1.12095e-08
1.11697e-08
1.11491e-08
1.1123e-08
1.10994e-08
1.10704e-08
1.10351e-08
1.10134e-08
1.09767e-08
1.09564e-08
1.09429e-08
1.09035e-08
1.09029e-08
1.09134e-08
1.08712e-08
1.09037e-08
1.10048e-08
1.09804e-08
1.1101e-08
1.14013e-08
1.14121e-08
1.17958e-08
1.22441e-08
1.27398e-08
1.24139e-08
1.16484e-08
1.15352e-08
1.1275e-08
1.12073e-08
1.11002e-08
1.10428e-08
1.09749e-08
1.0927e-08
1.0937e-08
1.11561e-08
1.12002e-08
1.14088e-08
1.15931e-08
1.12821e-08
1.12541e-08
1.12696e-08
1.11036e-08
1.08571e-08
1.0816e-08
1.07986e-08
1.07162e-08
1.06687e-08
1.06423e-08
1.06554e-08
1.06717e-08
1.07005e-08
1.07319e-08
1.07692e-08
1.08414e-08
1.1014e-08
1.15226e-08
1.1889e-08
1.23906e-08
1.30384e-08
1.28538e-08
1.35897e-08
1.40501e-08
1.7137e-08
1.71766e-08
1.32135e-08
1.21569e-08
1.17326e-08
1.16911e-08
1.16231e-08
1.1609e-08
1.16857e-08
1.17247e-08
1.17492e-08
1.18706e-08
1.19899e-08
1.20514e-08
1.21061e-08
1.2132e-08
1.21942e-08
1.23072e-08
1.23911e-08
1.24095e-08
1.24416e-08
1.25005e-08
1.25443e-08
1.25392e-08
1.25321e-08
1.25782e-08
1.26578e-08
1.27012e-08
1.27151e-08
1.27036e-08
1.27008e-08
1.27031e-08
1.26971e-08
1.27143e-08
1.27544e-08
1.2786e-08
1.27747e-08
1.27229e-08
1.26617e-08
1.26153e-08
1.25987e-08
1.25942e-08
1.26038e-08
1.25983e-08
1.25864e-08
1.25852e-08
1.25767e-08
1.25568e-08
1.25424e-08
1.2546e-08
1.25636e-08
1.25859e-08
1.26032e-08
1.26077e-08
1.25999e-08
1.25851e-08
1.25685e-08
1.25546e-08
1.25447e-08
1.25383e-08
1.25336e-08
1.25286e-08
1.2522e-08
1.2514e-08
1.25071e-08
1.25022e-08
1.25022e-08
1.24995e-08
1.24973e-08
1.24869e-08
1.2484e-08
1.24812e-08
1.24799e-08
1.24783e-08
1.24776e-08
1.24844e-08
1.25077e-08
1.24937e-08
1.25485e-08
1.25252e-08
1.2409e-08
1.15552e-08
1.11337e-08
1.41288e-08
1.71378e-08
1.8671e-08
1.72714e-08
1.50853e-08
1.36287e-08
1.29051e-08
1.27721e-08
1.3214e-08
1.43445e-08
1.64026e-08
1.98006e-08
2.48271e-08
3.10901e-08
3.69929e-08
4.14108e-08
4.55781e-08
5.32599e-08
6.71656e-08
9.16981e-08
1.35007e-07
2.10375e-07
3.40005e-07
5.49927e-07
8.56674e-07
1.20217e-06
1.47077e-06
1.65341e-06
1.7988e-06
1.86397e-06
1.75873e-06
1.60574e-06
1.46752e-06
1.33292e-06
1.16324e-06
9.62246e-07
7.58219e-07
5.34415e-07
3.41013e-07
2.3433e-07
2.00856e-07
2.00787e-07
1.92118e-07
1.52227e-07
1.11077e-07
9.44105e-08
9.79491e-08
1.09331e-07
1.0901e-07
8.84212e-08
6.22199e-08
4.57887e-08
3.79321e-08
3.54138e-08
3.72664e-08
4.26044e-08
5.15559e-08
6.07289e-08
6.66463e-08
6.81229e-08
6.8846e-08
7.08139e-08
6.79139e-08
6.06905e-08
5.15605e-08
4.44033e-08
4.13229e-08
4.25484e-08
4.58097e-08
5.25015e-08
6.22064e-08
7.38221e-08
8.41205e-08
9.37323e-08
1.04562e-07
1.18295e-07
1.35739e-07
1.58021e-07
1.86397e-07
2.26092e-07
2.73175e-07
3.25598e-07
3.66934e-07
4.1829e-07
4.1444e-07
3.66204e-07
3.20192e-07
2.72936e-07
2.13286e-07
1.67079e-07
1.25307e-07
9.59533e-08
8.18502e-08
7.89062e-08
8.29409e-08
9.31222e-08
1.0254e-07
1.07666e-07
1.10092e-07
1.11686e-07
1.01892e-07
8.97502e-08
7.49442e-08
6.08226e-08
4.806e-08
3.70789e-08
2.98965e-08
2.49353e-08
2.093e-08
1.7619e-08
1.60204e-08
1.53079e-08
1.54668e-08
1.63394e-08
1.71327e-08
1.73904e-08
1.70134e-08
1.63277e-08
1.55887e-08
1.52687e-08
1.53111e-08
1.52988e-08
1.46931e-08
1.4003e-08
1.38426e-08
1.33269e-08
1.29525e-08
1.28409e-08
1.26974e-08
1.26086e-08
1.25851e-08
1.25311e-08
1.25293e-08
1.25676e-08
1.26058e-08
1.2622e-08
1.26239e-08
1.26401e-08
1.26546e-08
1.26823e-08
1.27031e-08
1.27085e-08
1.27065e-08
1.27098e-08
1.27276e-08
1.27567e-08
1.27863e-08
1.28088e-08
1.28233e-08
1.28444e-08
1.28783e-08
1.2918e-08
1.29572e-08
1.29941e-08
1.30338e-08
1.30745e-08
1.31147e-08
1.31531e-08
1.31917e-08
1.32303e-08
1.32685e-08
1.3306e-08
1.33424e-08
1.33807e-08
1.34186e-08
1.3449e-08
1.3471e-08
1.34935e-08
1.35228e-08
1.35503e-08
1.35625e-08
1.35544e-08
1.35365e-08
1.3524e-08
1.35212e-08
1.3521e-08
1.35102e-08
1.34768e-08
1.34181e-08
1.33406e-08
1.32565e-08
1.31803e-08
1.312e-08
1.30696e-08
1.3015e-08
1.29418e-08
1.28487e-08
1.27525e-08
1.26682e-08
1.25967e-08
1.25295e-08
1.24554e-08
1.23684e-08
1.22717e-08
1.21778e-08
1.21002e-08
1.20399e-08
1.19832e-08
1.19148e-08
1.18313e-08
1.17449e-08
1.16698e-08
1.16063e-08
1.15463e-08
1.14826e-08
1.14152e-08
1.13511e-08
1.12971e-08
1.12501e-08
1.11963e-08
1.11323e-08
1.10673e-08
1.10102e-08
1.09648e-08
1.09282e-08
1.08935e-08
1.08528e-08
1.08054e-08
1.07576e-08
1.0715e-08
1.06808e-08
1.0653e-08
1.06278e-08
1.0601e-08
1.05716e-08
1.05415e-08
1.05139e-08
1.04914e-08
1.04737e-08
1.0458e-08
1.04412e-08
1.04224e-08
1.04037e-08
1.03875e-08
1.0375e-08
1.03655e-08
1.0358e-08
1.03513e-08
1.03443e-08
1.03373e-08
1.03307e-08
1.03245e-08
1.03194e-08
1.03159e-08
1.0315e-08
1.03165e-08
1.03183e-08
1.03185e-08
1.03173e-08
1.03167e-08
1.03182e-08
1.03212e-08
1.03259e-08
1.03311e-08
1.03352e-08
1.03392e-08
1.0344e-08
1.03491e-08
1.03543e-08
1.03598e-08
1.03647e-08
1.03689e-08
1.03741e-08
1.03819e-08
1.03914e-08
1.03982e-08
1.04005e-08
1.04011e-08
1.04029e-08
1.04066e-08
1.04121e-08
1.04187e-08
1.04252e-08
1.04299e-08
1.04323e-08
1.04333e-08
1.04343e-08
1.04354e-08
1.04371e-08
1.04407e-08
1.04467e-08
1.04514e-08
1.0452e-08
1.04505e-08
1.045e-08
1.04509e-08
1.04522e-08
1.0454e-08
1.04562e-08
1.04571e-08
1.04562e-08
1.04547e-08
1.04533e-08
1.04518e-08
1.04506e-08
1.04499e-08
1.0449e-08
1.04474e-08
1.04444e-08
1.04399e-08
1.04357e-08
1.04328e-08
1.04299e-08
1.04257e-08
1.04194e-08
1.04127e-08
1.04068e-08
1.04014e-08
1.0395e-08
1.03877e-08
1.03809e-08
1.03756e-08
1.0371e-08
1.03655e-08
1.03587e-08
1.03524e-08
1.03472e-08
1.03429e-08
1.03392e-08
1.03359e-08
1.0333e-08
1.03306e-08
1.0329e-08
1.0328e-08
1.03275e-08
1.03279e-08
1.03292e-08
1.03308e-08
1.03321e-08
1.03336e-08
1.03359e-08
1.03392e-08
1.0343e-08
1.03461e-08
1.03477e-08
1.03481e-08
1.03485e-08
1.03489e-08
1.03491e-08
1.03487e-08
1.03477e-08
1.03461e-08
1.03441e-08
1.03419e-08
1.03387e-08
1.03349e-08
1.03307e-08
1.03266e-08
1.03227e-08
1.03187e-08
1.03143e-08
1.03094e-08
1.03044e-08
1.02995e-08
1.02947e-08
1.02901e-08
1.02855e-08
1.02807e-08
1.02757e-08
1.02708e-08
1.02662e-08
1.02617e-08
1.02574e-08
1.02534e-08
1.02493e-08
1.0245e-08
1.02404e-08
1.0236e-08
1.02321e-08
1.02284e-08
1.02243e-08
1.02196e-08
1.02145e-08
1.02098e-08
1.02056e-08
1.02016e-08
1.01975e-08
1.01934e-08
1.01893e-08
1.01852e-08
1.01811e-08
1.01772e-08
1.01737e-08
1.01704e-08
1.01669e-08
1.01633e-08
1.01599e-08
1.01566e-08
1.01536e-08
1.01505e-08
1.01474e-08
1.01444e-08
1.01416e-08
1.0139e-08
1.01364e-08
1.01336e-08
1.01311e-08
1.01286e-08
1.01264e-08
1.01243e-08
1.0122e-08
1.01198e-08
1.01179e-08
1.01166e-08
1.01149e-08
1.01138e-08
1.01124e-08
1.01125e-08
1.01093e-08
1.01078e-08
1.01074e-08
1.01062e-08
1.01088e-08
1.01063e-08
1.01117e-08
1.0108e-08
1.01091e-08
1.01115e-08
1.01128e-08
1.01122e-08
1.0114e-08
1.0119e-08
1.01176e-08
1.01276e-08
1.01438e-08
1.01539e-08
1.01604e-08
1.01613e-08
1.01771e-08
1.01517e-08
1.01256e-08
1.01186e-08
1.01101e-08
1.01056e-08
1.01025e-08
1.01022e-08
1.01053e-08
1.01076e-08
1.01117e-08
1.01176e-08
1.01123e-08
1.01118e-08
1.01081e-08
1.00933e-08
1.00859e-08
1.00836e-08
1.0082e-08
1.00813e-08
1.00814e-08
1.00807e-08
1.00804e-08
1.0079e-08
1.00819e-08
1.00827e-08
1.00841e-08
1.00869e-08
1.00924e-08
1.01069e-08
1.0129e-08
1.01595e-08
1.02071e-08
1.02434e-08
1.03061e-08
1.03592e-08
1.04606e-08
1.0474e-08
1.03837e-08
1.06315e-08
1.04484e-08
1.02038e-08
1.01829e-08
1.01661e-08
1.01569e-08
1.01486e-08
1.01422e-08
1.01351e-08
1.01273e-08
1.01209e-08
1.0118e-08
1.01166e-08
1.01155e-08
1.01154e-08
1.01157e-08
1.01177e-08
1.01211e-08
1.01239e-08
1.01252e-08
1.01271e-08
1.01298e-08
1.01321e-08
1.01332e-08
1.01345e-08
1.01371e-08
1.01406e-08
1.01432e-08
1.0145e-08
1.0146e-08
1.01469e-08
1.01478e-08
1.01487e-08
1.01503e-08
1.01524e-08
1.0154e-08
1.01541e-08
1.01528e-08
1.0151e-08
1.01497e-08
1.01493e-08
1.01493e-08
1.01498e-08
1.015e-08
1.01501e-08
1.01505e-08
1.01509e-08
1.0151e-08
1.01512e-08
1.01518e-08
1.0153e-08
1.01542e-08
1.01552e-08
1.01558e-08
1.0156e-08
1.01558e-08
1.01555e-08
1.01551e-08
1.01549e-08
1.01548e-08
1.01549e-08
1.01549e-08
1.01548e-08
1.01547e-08
1.01547e-08
1.01548e-08
1.01551e-08
1.01552e-08
1.01553e-08
1.01552e-08
1.01552e-08
1.01554e-08
1.01554e-08
1.01552e-08
1.01557e-08
1.01568e-08
1.01564e-08
1.01558e-08
1.01559e-08
1.01555e-08
1.01474e-08
1.00998e-08
1.06954e-08
1.24738e-08
1.41498e-08
1.46912e-08
1.37402e-08
1.26808e-08
1.20192e-08
1.17619e-08
1.19204e-08
1.26513e-08
1.43064e-08
1.74265e-08
2.2811e-08
3.12228e-08
4.27698e-08
5.47994e-08
6.51045e-08
7.40821e-08
9.02395e-08
1.17307e-07
1.57015e-07
2.17254e-07
3.04383e-07
4.20688e-07
5.66368e-07
7.58626e-07
1.01975e-06
1.15668e-06
1.18207e-06
1.23261e-06
1.23856e-06
1.1774e-06
1.09962e-06
1.01538e-06
9.1276e-07
7.76499e-07
6.13758e-07
4.45018e-07
2.83032e-07
1.68246e-07
1.10553e-07
8.93008e-08
8.38436e-08
7.76691e-08
6.27798e-08
4.82475e-08
4.14653e-08
4.13112e-08
4.38409e-08
4.32401e-08
3.72736e-08
2.93347e-08
2.38907e-08
2.10379e-08
1.99449e-08
2.01047e-08
2.09876e-08
2.22919e-08
2.33874e-08
2.38708e-08
2.42076e-08
2.56105e-08
2.76223e-08
2.88208e-08
2.80126e-08
2.58476e-08
2.35239e-08
2.17894e-08
2.14583e-08
2.26631e-08
2.47787e-08
2.78314e-08
3.22402e-08
3.80139e-08
4.50798e-08
5.3842e-08
6.45257e-08
7.77692e-08
9.44402e-08
1.14674e-07
1.38088e-07
1.64054e-07
1.93041e-07
2.28732e-07
2.6409e-07
3.00589e-07
3.32484e-07
3.38165e-07
3.2863e-07
2.82553e-07
2.24283e-07
1.71002e-07
1.30301e-07
9.96301e-08
7.60423e-08
6.05766e-08
5.49585e-08
5.58745e-08
5.71868e-08
5.75006e-08
5.50294e-08
5.0236e-08
4.4548e-08
3.85608e-08
3.30869e-08
2.87575e-08
2.51685e-08
2.24918e-08
2.05952e-08
1.88043e-08
1.72392e-08
1.59202e-08
1.47421e-08
1.3685e-08
1.28176e-08
1.21822e-08
1.18266e-08
1.17817e-08
1.17278e-08
1.16106e-08
1.14811e-08
1.13621e-08
1.12483e-08
1.1213e-08
1.11862e-08
1.11177e-08
1.09846e-08
1.08489e-08
1.07627e-08
1.06624e-08
1.05874e-08
1.05502e-08
1.05222e-08
1.05106e-08
1.05083e-08
1.05098e-08
1.05116e-08
1.05097e-08
1.05116e-08
1.05133e-08
1.05175e-08
1.05226e-08
1.05256e-08
1.05274e-08
1.05303e-08
1.05353e-08
1.0542e-08
1.05487e-08
1.05536e-08
1.0557e-08
1.05616e-08
1.05688e-08
1.05775e-08
1.05856e-08
1.05917e-08
1.05976e-08
1.06049e-08
1.06136e-08
1.06224e-08
1.06303e-08
1.06372e-08
1.06426e-08
1.06475e-08
1.06531e-08
1.06601e-08
1.06674e-08
1.06727e-08
1.06754e-08
1.06771e-08
1.06801e-08
1.06831e-08
1.06834e-08
1.06798e-08
1.06735e-08
1.0667e-08
1.06616e-08
1.06569e-08
1.06504e-08
1.064e-08
1.06245e-08
1.06053e-08
1.05852e-08
1.05665e-08
1.05505e-08
1.05363e-08
1.0522e-08
1.05056e-08
1.04865e-08
1.04664e-08
1.04475e-08
1.04307e-08
1.04158e-08
1.04013e-08
1.03859e-08
1.03694e-08
1.0353e-08
1.03385e-08
1.03263e-08
1.03152e-08
1.03036e-08
1.02908e-08
1.02778e-08
1.0266e-08
1.02554e-08
1.02454e-08
1.02356e-08
1.0226e-08
1.02171e-08
1.02092e-08
1.02018e-08
1.01939e-08
1.01856e-08
1.01776e-08
1.01704e-08
1.01643e-08
1.0159e-08
1.01541e-08
1.01489e-08
1.01435e-08
1.01383e-08
1.01335e-08
1.01293e-08
1.01257e-08
1.01224e-08
1.01193e-08
1.01163e-08
1.01133e-08
1.01105e-08
1.0108e-08
1.01058e-08
1.01039e-08
1.0102e-08
1.01002e-08
1.00984e-08
1.00968e-08
1.00955e-08
1.00945e-08
1.00935e-08
1.00926e-08
1.00918e-08
1.0091e-08
1.00903e-08
1.00897e-08
1.00892e-08
1.00889e-08
1.00887e-08
1.00886e-08
1.00884e-08
1.00883e-08
1.00882e-08
1.00882e-08
1.00884e-08
1.00885e-08
1.00887e-08
1.00888e-08
1.00889e-08
1.00891e-08
1.00895e-08
1.00898e-08
1.00899e-08
1.00899e-08
1.00901e-08
1.00903e-08
1.00906e-08
1.00911e-08
1.00917e-08
1.00921e-08
1.00922e-08
1.00923e-08
1.00925e-08
1.00929e-08
1.00933e-08
1.00937e-08
1.0094e-08
1.00944e-08
1.00947e-08
1.0095e-08
1.00952e-08
1.00953e-08
1.00955e-08
1.00958e-08
1.00963e-08
1.00968e-08
1.00969e-08
1.0097e-08
1.00972e-08
1.00974e-08
1.00976e-08
1.00978e-08
1.0098e-08
1.00982e-08
1.00983e-08
1.00984e-08
1.00985e-08
1.00984e-08
1.00984e-08
1.00984e-08
1.00985e-08
1.00985e-08
1.00985e-08
1.00981e-08
1.00978e-08
1.00977e-08
1.00976e-08
1.00973e-08
1.00967e-08
1.00961e-08
1.00957e-08
1.00953e-08
1.00948e-08
1.0094e-08
1.00934e-08
1.00929e-08
1.00924e-08
1.00918e-08
1.00911e-08
1.00904e-08
1.00897e-08
1.00892e-08
1.00888e-08
1.00883e-08
1.00878e-08
1.00874e-08
1.0087e-08
1.00867e-08
1.00865e-08
1.00863e-08
1.00862e-08
1.0086e-08
1.00858e-08
1.00857e-08
1.00856e-08
1.00856e-08
1.00857e-08
1.00856e-08
1.00855e-08
1.00852e-08
1.0085e-08
1.00847e-08
1.00844e-08
1.00841e-08
1.00838e-08
1.00834e-08
1.00831e-08
1.00827e-08
1.00823e-08
1.00818e-08
1.00813e-08
1.00808e-08
1.00803e-08
1.00798e-08
1.00793e-08
1.00787e-08
1.00782e-08
1.00776e-08
1.00771e-08
1.00766e-08
1.00761e-08
1.00756e-08
1.00751e-08
1.00747e-08
1.00742e-08
1.00738e-08
1.00734e-08
1.0073e-08
1.00726e-08
1.00722e-08
1.00717e-08
1.00714e-08
1.0071e-08
1.00706e-08
1.00703e-08
1.00699e-08
1.00694e-08
1.0069e-08
1.00687e-08
1.00683e-08
1.0068e-08
1.00676e-08
1.00673e-08
1.00669e-08
1.00666e-08
1.00663e-08
1.0066e-08
1.00656e-08
1.00653e-08
1.0065e-08
1.00646e-08
1.00641e-08
1.00636e-08
1.0063e-08
1.00622e-08
1.00615e-08
1.00609e-08
1.00605e-08
1.006e-08
1.00593e-08
1.00585e-08
1.00578e-08
1.00573e-08
1.0057e-08
1.0057e-08
1.00566e-08
1.00562e-08
1.00566e-08
1.00579e-08
1.0057e-08
1.00579e-08
1.00567e-08
1.00585e-08
1.00592e-08
1.00591e-08
1.00595e-08
1.00595e-08
1.00596e-08
1.00602e-08
1.00611e-08
1.00618e-08
1.00629e-08
1.00645e-08
1.00658e-08
1.00657e-08
1.00647e-08
1.00638e-08
1.0063e-08
1.00624e-08
1.00622e-08
1.00612e-08
1.00599e-08
1.00603e-08
1.00598e-08
1.00596e-08
1.00602e-08
1.00615e-08
1.00628e-08
1.00644e-08
1.00663e-08
1.00682e-08
1.00704e-08
1.00711e-08
1.00691e-08
1.00654e-08
1.00623e-08
1.00604e-08
1.00586e-08
1.00575e-08
1.00565e-08
1.0056e-08
1.00563e-08
1.00568e-08
1.00576e-08
1.00583e-08
1.00609e-08
1.00638e-08
1.0067e-08
1.0073e-08
1.00855e-08
1.01042e-08
1.01291e-08
1.01553e-08
1.0164e-08
1.01604e-08
1.0157e-08
1.01488e-08
1.01331e-08
1.01337e-08
1.01146e-08
1.00915e-08
1.00887e-08
1.00784e-08
1.00717e-08
1.00695e-08
1.00677e-08
1.00662e-08
1.00649e-08
1.00638e-08
1.00626e-08
1.00613e-08
1.00602e-08
1.00591e-08
1.00582e-08
1.00574e-08
1.00567e-08
1.00562e-08
1.00558e-08
1.00555e-08
1.00552e-08
1.0055e-08
1.00549e-08
1.00548e-08
1.00548e-08
1.00548e-08
1.00548e-08
1.00549e-08
1.0055e-08
1.00551e-08
1.00552e-08
1.00553e-08
1.00554e-08
1.00555e-08
1.00557e-08
1.00558e-08
1.00559e-08
1.0056e-08
1.0056e-08
1.0056e-08
1.00559e-08
1.00559e-08
1.00559e-08
1.00559e-08
1.00559e-08
1.0056e-08
1.00561e-08
1.00561e-08
1.00562e-08
1.00562e-08
1.00563e-08
1.00563e-08
1.00564e-08
1.00564e-08
1.00564e-08
1.00564e-08
1.00564e-08
1.00563e-08
1.00563e-08
1.00563e-08
1.00562e-08
1.00562e-08
1.00561e-08
1.0056e-08
1.0056e-08
1.00559e-08
1.00558e-08
1.00557e-08
1.00557e-08
1.00557e-08
1.00556e-08
1.00556e-08
1.00556e-08
1.00556e-08
1.00555e-08
1.00555e-08
1.00554e-08
1.00555e-08
1.00556e-08
1.00557e-08
1.00562e-08
1.00566e-08
1.00542e-08
1.00371e-08
1.04173e-08
1.14403e-08
1.24158e-08
1.26242e-08
1.21278e-08
1.16179e-08
1.13234e-08
1.12623e-08
1.14952e-08
1.22374e-08
1.39696e-08
1.73371e-08
2.30878e-08
3.23506e-08
4.57348e-08
6.13991e-08
7.50123e-08
8.50666e-08
1.04847e-07
1.37688e-07
1.82573e-07
2.33199e-07
2.8642e-07
3.43004e-07
4.09351e-07
5.06052e-07
6.41664e-07
6.74789e-07
6.71219e-07
7.00828e-07
7.16609e-07
6.97008e-07
6.57537e-07
6.07749e-07
5.45063e-07
4.51558e-07
3.46417e-07
2.38171e-07
1.43272e-07
8.36096e-08
5.53647e-08
4.43262e-08
4.01661e-08
3.67306e-08
3.12097e-08
2.60738e-08
2.34638e-08
2.30944e-08
2.35932e-08
2.31784e-08
2.12645e-08
1.85883e-08
1.65221e-08
1.52899e-08
1.4659e-08
1.44188e-08
1.43767e-08
1.44257e-08
1.44328e-08
1.44506e-08
1.4716e-08
1.53123e-08
1.62078e-08
1.70213e-08
1.71902e-08
1.67405e-08
1.59761e-08
1.52318e-08
1.48659e-08
1.50507e-08
1.5763e-08
1.68957e-08
1.85717e-08
2.09449e-08
2.43207e-08
2.8956e-08
3.49698e-08
4.2525e-08
5.20423e-08
6.37124e-08
7.71291e-08
9.13783e-08
1.0561e-07
1.19025e-07
1.31445e-07
1.44233e-07
1.59952e-07
1.78583e-07
1.93942e-07
2.01951e-07
2.01252e-07
1.89794e-07
1.59605e-07
1.29359e-07
9.83777e-08
7.34384e-08
5.50018e-08
4.26503e-08
3.50764e-08
3.22596e-08
3.11325e-08
2.94882e-08
2.74506e-08
2.50021e-08
2.25847e-08
2.05574e-08
1.88538e-08
1.75119e-08
1.6554e-08
1.58618e-08
1.53397e-08
1.48827e-08
1.44612e-08
1.39573e-08
1.33996e-08
1.28221e-08
1.22555e-08
1.17284e-08
1.12925e-08
1.09799e-08
1.08321e-08
1.07218e-08
1.0636e-08
1.05801e-08
1.05503e-08
1.05356e-08
1.0536e-08
1.05323e-08
1.0507e-08
1.04532e-08
1.0393e-08
1.03449e-08
1.03012e-08
1.02683e-08
1.02462e-08
1.02311e-08
1.02182e-08
1.02075e-08
1.02002e-08
1.01954e-08
1.01918e-08
1.01899e-08
1.01885e-08
1.01878e-08
1.01879e-08
1.01884e-08
1.01892e-08
1.01901e-08
1.0191e-08
1.0192e-08
1.01935e-08
1.01953e-08
1.01971e-08
1.01988e-08
1.02004e-08
1.02022e-08
1.02042e-08
1.02064e-08
1.02084e-08
1.02103e-08
1.02118e-08
1.02131e-08
1.02144e-08
1.02158e-08
1.02172e-08
1.02184e-08
1.02191e-08
1.02195e-08
1.02196e-08
1.02197e-08
1.02197e-08
1.02193e-08
1.02181e-08
1.02163e-08
1.02144e-08
1.02125e-08
1.02107e-08
1.02086e-08
1.02058e-08
1.02022e-08
1.0198e-08
1.01936e-08
1.01893e-08
1.01854e-08
1.01818e-08
1.01782e-08
1.01745e-08
1.01705e-08
1.01663e-08
1.01621e-08
1.01582e-08
1.01547e-08
1.01514e-08
1.01482e-08
1.01449e-08
1.01416e-08
1.01385e-08
1.01357e-08
1.01331e-08
1.01306e-08
1.01281e-08
1.01256e-08
1.01231e-08
1.01208e-08
1.01187e-08
1.01167e-08
1.01147e-08
1.01128e-08
1.01109e-08
1.01092e-08
1.01075e-08
1.01058e-08
1.01042e-08
1.01026e-08
1.01011e-08
1.00997e-08
1.00984e-08
1.00971e-08
1.00959e-08
1.00947e-08
1.00935e-08
1.00924e-08
1.00913e-08
1.00903e-08
1.00893e-08
1.00884e-08
1.00876e-08
1.00867e-08
1.00859e-08
1.00851e-08
1.00844e-08
1.00837e-08
1.0083e-08
1.00824e-08
1.00818e-08
1.00812e-08
1.00807e-08
1.00802e-08
1.00797e-08
1.00793e-08
1.00789e-08
1.00786e-08
1.00782e-08
1.00779e-08
1.00775e-08
1.00773e-08
1.0077e-08
1.00768e-08
1.00766e-08