/*--------------------------------*- C++ -*----------------------------------*\
| =========                 |                                                 |
| \\      /  F ield         | OpenFOAM: The Open Source CFD Toolbox           |
|  \\    /   O peration     | Version:  v2006                                 |
|   \\  /    A nd           | Website:  www.openfoam.com                      |
|    \\/     M anipulation  |                                                 |
\*---------------------------------------------------------------------------*/
FoamFile
{
    version     2.0;
    format      ascii;
    class       volScalarField;
    location    "8.9";
    object      nut;
}
// * * * * * * * * * * * * * * * * * * * * * * * * * * * * * * * * * * * * * //

dimensions      [0 2 -1 0 0 0 0];


internalField   nonuniform List<scalar> 
33000
(
1.43993e-09
2.60235e-09
4.15602e-09
7.31943e-09
2.30188e-08
7.3132e-09
3.25494e-09
2.2945e-09
1.85053e-09
1.58358e-09
1.45641e-09
1.42667e-09
1.4224e-09
1.40904e-09
1.36746e-09
1.30406e-09
1.26111e-09
1.27699e-09
1.33948e-09
1.48648e-09
1.86967e-09
2.8029e-09
4.55681e-09
6.79144e-09
8.82801e-09
1.07954e-08
1.2559e-08
1.38081e-08
1.48323e-08
1.61021e-08
1.69706e-08
1.73895e-08
1.99295e-08
2.71307e-08
4.21216e-08
6.93444e-08
9.70319e-08
1.19712e-07
1.55635e-07
1.82077e-07
1.82135e-07
1.8265e-07
1.94078e-07
2.26263e-07
2.92755e-07
3.13374e-07
2.96246e-07
2.92568e-07
3.07253e-07
3.7253e-07
5.49408e-07
6.67757e-07
6.42017e-07
6.57994e-07
6.63254e-07
6.64066e-07
6.70984e-07
6.68829e-07
6.31234e-07
5.96102e-07
6.2293e-07
6.43437e-07
6.39213e-07
5.93528e-07
4.92164e-07
4.05898e-07
3.42525e-07
2.99692e-07
2.77698e-07
2.59445e-07
2.405e-07
2.26771e-07
2.13901e-07
2.11416e-07
2.14444e-07
2.8991e-07
2.35733e-07
1.74949e-07
2.55167e-07
7.23474e-07
3.23009e-07
5.72674e-07
4.63199e-07
6.7716e-07
5.76477e-07
5.08714e-07
5.41514e-07
4.78665e-07
4.93512e-07
4.39815e-07
4.27048e-07
3.84671e-07
3.37345e-07
2.97358e-07
2.41664e-07
2.07291e-07
1.82754e-07
1.85437e-07
1.89441e-07
2.45161e-07
3.78895e-07
4.57886e-07
4.44305e-07
4.1064e-07
3.10307e-07
3.54324e-07
4.14846e-07
5.16839e-07
6.44931e-07
7.06759e-07
6.95493e-07
6.8217e-07
6.63518e-07
6.35511e-07
6.01332e-07
5.70755e-07
5.54395e-07
5.63234e-07
5.87871e-07
5.91895e-07
5.97323e-07
6.00786e-07
5.87101e-07
5.88836e-07
5.87225e-07
4.79716e-07
4.07863e-07
3.70732e-07
3.4122e-07
3.15951e-07
2.94766e-07
2.71977e-07
2.55585e-07
2.41779e-07
2.28794e-07
2.17084e-07
2.07122e-07
1.98241e-07
1.90311e-07
1.82903e-07
1.76034e-07
1.69758e-07
1.64177e-07
1.59165e-07
1.54626e-07
1.50275e-07
1.46137e-07
1.42187e-07
1.38402e-07
1.35143e-07
1.32162e-07
1.29103e-07
1.26129e-07
1.23325e-07
1.20724e-07
1.18259e-07
1.15905e-07
1.13623e-07
1.11387e-07
1.09241e-07
1.07197e-07
1.05257e-07
1.03394e-07
1.01602e-07
9.98388e-08
9.8073e-08
9.63742e-08
9.47649e-08
9.32317e-08
9.17604e-08
9.03172e-08
8.89007e-08
8.75708e-08
8.63328e-08
8.52006e-08
8.42464e-08
8.34085e-08
8.26128e-08
8.18827e-08
8.11929e-08
8.05511e-08
8.00329e-08
7.96319e-08
7.93696e-08
7.92758e-08
7.92536e-08
7.92261e-08
7.92576e-08
7.94694e-08
7.99161e-08
8.05524e-08
8.12794e-08
8.20644e-08
8.29463e-08
8.40147e-08
8.53903e-08
8.71897e-08
8.95185e-08
9.21501e-08
9.48368e-08
9.7658e-08
1.00915e-07
1.05008e-07
1.09907e-07
1.15364e-07
1.2122e-07
1.27385e-07
1.34299e-07
1.42771e-07
1.52929e-07
1.63585e-07
1.7354e-07
1.8522e-07
2.00204e-07
2.17554e-07
2.37761e-07
2.62142e-07
2.87758e-07
3.13448e-07
3.4319e-07
3.80475e-07
4.21963e-07
4.25287e-07
4.28823e-07
4.32279e-07
4.35336e-07
4.38104e-07
4.40732e-07
4.43416e-07
4.46196e-07
4.49048e-07
4.51755e-07
4.53947e-07
4.55771e-07
4.57402e-07
4.58942e-07
4.6042e-07
4.61746e-07
4.62837e-07
4.63696e-07
4.64352e-07
4.64721e-07
4.64724e-07
4.64398e-07
4.63898e-07
4.6333e-07
4.62677e-07
4.61962e-07
4.60917e-07
4.59367e-07
4.57657e-07
4.55969e-07
4.54217e-07
4.52375e-07
4.50367e-07
4.48066e-07
4.45577e-07
4.42993e-07
4.4035e-07
4.37632e-07
4.34772e-07
4.3177e-07
4.28625e-07
4.25384e-07
4.22121e-07
4.18856e-07
4.15518e-07
4.11969e-07
4.0821e-07
3.95951e-07
3.79875e-07
3.64875e-07
3.50444e-07
3.36107e-07
3.22897e-07
3.10831e-07
2.98572e-07
2.86126e-07
2.74067e-07
2.62626e-07
2.51602e-07
2.40784e-07
2.30503e-07
2.21161e-07
2.12103e-07
2.02935e-07
1.94096e-07
1.85791e-07
1.7785e-07
1.70144e-07
1.62852e-07
1.55945e-07
1.49239e-07
1.42707e-07
1.36418e-07
1.30367e-07
1.24548e-07
1.19042e-07
1.13807e-07
1.08787e-07
1.03996e-07
9.94073e-08
9.50211e-08
9.0858e-08
8.6895e-08
8.30926e-08
7.94372e-08
7.59613e-08
7.26877e-08
6.96182e-08
6.67412e-08
6.40464e-08
6.15438e-08
5.92295e-08
5.70937e-08
5.51203e-08
5.32982e-08
5.16285e-08
5.01089e-08
4.87342e-08
4.75007e-08
4.64033e-08
4.54329e-08
4.45843e-08
4.3853e-08
4.32304e-08
4.2708e-08
4.22819e-08
4.19489e-08
4.1701e-08
4.15266e-08
4.14198e-08
4.13772e-08
4.14004e-08
4.14898e-08
4.16367e-08
4.18282e-08
4.20594e-08
4.23309e-08
4.26374e-08
4.29777e-08
4.33506e-08
4.37564e-08
4.41945e-08
4.46666e-08
4.51702e-08
4.57037e-08
4.62688e-08
4.6866e-08
4.74969e-08
4.81627e-08
4.88643e-08
4.96001e-08
5.03683e-08
5.11688e-08
5.20058e-08
5.28805e-08
5.37992e-08
5.47623e-08
5.57654e-08
5.68138e-08
5.79111e-08
5.9059e-08
6.02574e-08
6.15186e-08
6.28534e-08
6.42652e-08
6.57462e-08
6.72877e-08
6.89032e-08
7.06347e-08
7.24872e-08
7.44317e-08
7.64657e-08
7.86124e-08
8.08988e-08
8.33394e-08
8.59268e-08
8.86971e-08
9.1695e-08
9.49242e-08
9.83154e-08
1.01925e-07
1.05855e-07
1.10137e-07
1.14789e-07
1.17997e-07
1.1689e-07
1.15772e-07
1.14645e-07
1.13517e-07
1.12385e-07
1.11247e-07
1.10104e-07
1.08965e-07
1.07832e-07
1.06708e-07
1.05594e-07
1.04495e-07
1.03403e-07
1.02323e-07
1.01254e-07
1.00206e-07
9.91764e-08
9.81818e-08
9.72151e-08
9.6276e-08
9.53549e-08
9.44617e-08
9.3611e-08
9.27693e-08
9.19495e-08
9.11175e-08
9.02946e-08
8.94913e-08
8.86661e-08
8.78688e-08
8.70237e-08
8.61398e-08
8.53416e-08
8.4589e-08
8.37065e-08
8.3004e-08
8.17892e-08
8.0432e-08
7.97838e-08
7.92008e-08
7.791e-08
7.88048e-08
7.98652e-08
7.63297e-08
7.71313e-08
7.84898e-08
7.70779e-08
7.66002e-08
7.49044e-08
7.40232e-08
7.24245e-08
7.08841e-08
7.00985e-08
6.79433e-08
6.62501e-08
6.68352e-08
6.37447e-08
6.49555e-08
6.5466e-08
6.23906e-08
5.60447e-08
5.3374e-08
5.70362e-08
6.06924e-08
6.15479e-08
6.21177e-08
6.36169e-08
6.33121e-08
6.45727e-08
6.35699e-08
6.48859e-08
6.35729e-08
6.38405e-08
6.64232e-08
6.72e-08
6.28064e-08
6.33608e-08
5.10441e-08
4.98343e-08
4.74112e-08
4.98051e-08
3.61829e-08
3.20403e-08
3.46297e-08
4.18544e-08
4.70113e-08
5.28723e-08
5.80757e-08
6.19139e-08
6.48091e-08
6.73492e-08
6.971e-08
7.16147e-08
7.26236e-08
7.32438e-08
7.36344e-08
7.38571e-08
7.41003e-08
7.40557e-08
7.35944e-08
7.30912e-08
7.27018e-08
7.2211e-08
7.15105e-08
7.07692e-08
7.01747e-08
6.96279e-08
6.88983e-08
6.80278e-08
6.71551e-08
6.63262e-08
6.55376e-08
6.46946e-08
6.38653e-08
6.31047e-08
6.2297e-08
6.13862e-08
6.04135e-08
5.94772e-08
5.86238e-08
5.78497e-08
5.71003e-08
5.63608e-08
5.56094e-08
5.48346e-08
5.41154e-08
5.3413e-08
5.26876e-08
5.19889e-08
5.13466e-08
5.07369e-08
5.0135e-08
4.95276e-08
4.8905e-08
4.82775e-08
4.76591e-08
4.7059e-08
4.64843e-08
4.59331e-08
4.54007e-08
4.48819e-08
4.43751e-08
4.38791e-08
4.33931e-08
4.29218e-08
4.24672e-08
4.20381e-08
4.16071e-08
4.12059e-08
4.07616e-08
4.04095e-08
3.99737e-08
3.96858e-08
3.92146e-08
3.89707e-08
3.86963e-08
3.82767e-08
3.74609e-08
3.85202e-08
3.5247e-08
3.99273e-08
2.82113e-08
3.01938e-08
3.96848e-09
5.07842e-09
1.5984e-08
3.3176e-08
2.98793e-08
1.12925e-08
6.6286e-09
5.09899e-09
4.20218e-09
4.10323e-09
4.90972e-09
6.34143e-09
7.10324e-09
7.3975e-09
8.43373e-09
1.05463e-08
1.43352e-08
2.44426e-08
3.74602e-08
3.87715e-08
4.67023e-08
7.30451e-08
1.12028e-07
1.54487e-07
2.00129e-07
2.52297e-07
3.04538e-07
3.48001e-07
3.91042e-07
4.65518e-07
5.55758e-07
6.23786e-07
6.764e-07
7.31288e-07
7.98563e-07
7.54989e-07
7.34124e-07
6.63144e-07
6.33662e-07
6.79225e-07
6.16789e-07
5.7855e-07
5.47548e-07
5.24424e-07
4.10617e-07
3.54328e-07
3.79657e-07
3.27614e-07
3.34389e-07
3.3838e-07
2.4705e-07
1.94692e-07
2.44745e-07
2.54708e-07
2.28642e-07
1.46338e-07
1.24001e-07
1.49073e-07
2.31161e-07
3.96234e-07
5.03236e-07
3.7199e-07
2.27452e-07
1.65147e-07
1.41509e-07
1.30231e-07
1.20197e-07
1.35522e-07
1.61334e-07
1.70495e-07
1.83519e-07
2.0034e-07
2.17257e-07
2.30437e-07
2.37743e-07
2.43188e-07
2.51379e-07
2.69071e-07
2.88454e-07
3.01911e-07
3.2447e-07
3.51948e-07
3.53352e-07
3.42239e-07
3.37601e-07
3.17202e-07
3.06599e-07
2.91102e-07
2.54399e-07
2.18114e-07
1.9731e-07
1.90738e-07
1.98092e-07
2.12573e-07
2.14328e-07
2.32057e-07
2.48227e-07
2.53189e-07
2.49268e-07
2.43368e-07
2.27488e-07
2.09682e-07
1.81967e-07
1.52409e-07
1.52951e-07
1.13301e-07
7.39845e-08
5.66972e-08
4.3108e-08
5.32854e-08
9.95072e-08
9.73498e-08
7.77671e-08
7.42764e-08
7.25193e-08
7.5268e-08
7.90138e-08
9.45218e-08
6.84896e-08
5.62717e-08
1.13209e-07
1.12805e-07
1.00202e-07
7.20112e-08
6.25773e-08
5.1736e-08
5.74068e-08
7.05889e-08
7.27811e-08
7.4458e-08
7.24236e-08
6.99969e-08
7.24871e-08
7.61153e-08
7.69757e-08
7.88365e-08
8.0593e-08
8.22343e-08
8.32893e-08
8.57203e-08
8.86037e-08
9.11594e-08
9.48644e-08
9.85228e-08
1.01648e-07
1.03727e-07
1.07285e-07
1.13728e-07
1.22057e-07
1.29377e-07
1.34663e-07
1.38647e-07
1.46207e-07
1.60726e-07
1.76872e-07
1.88197e-07
1.87503e-07
1.87031e-07
1.86664e-07
1.86328e-07
1.85967e-07
1.8561e-07
1.85267e-07
1.8499e-07
1.84852e-07
1.84738e-07
1.84538e-07
1.84394e-07
1.84377e-07
1.84463e-07
1.84599e-07
1.84737e-07
1.84872e-07
1.85086e-07
1.85443e-07
1.85952e-07
1.86564e-07
1.87198e-07
1.87841e-07
1.88499e-07
1.89183e-07
1.89939e-07
1.90802e-07
1.91788e-07
1.92853e-07
1.9277e-07
1.82239e-07
1.66735e-07
1.51211e-07
1.38553e-07
1.29362e-07
1.22865e-07
1.17682e-07
1.12115e-07
1.04555e-07
9.62612e-08
9.0117e-08
8.67065e-08
8.39567e-08
8.08483e-08
7.68414e-08
7.2557e-08
6.96872e-08
6.80309e-08
6.70928e-08
6.52146e-08
6.31147e-08
6.1829e-08
6.16773e-08
6.26118e-08
6.32466e-08
6.25576e-08
6.10185e-08
6.02529e-08
6.08399e-08
6.20482e-08
6.38957e-08
6.63936e-08
6.79314e-08
6.86097e-08
6.83205e-08
6.94411e-08
7.16565e-08
7.40339e-08
7.75794e-08
8.17794e-08
8.582e-08
8.81077e-08
8.97419e-08
9.2775e-08
9.76737e-08
1.05937e-07
1.13695e-07
1.17322e-07
1.19458e-07
1.23547e-07
1.29896e-07
1.39438e-07
1.55062e-07
1.74701e-07
1.89524e-07
1.96288e-07
1.97371e-07
2.04998e-07
2.21232e-07
2.27794e-07
2.28052e-07
2.28114e-07
2.27917e-07
2.27778e-07
2.27827e-07
2.2804e-07
2.28365e-07
2.28646e-07
2.28787e-07
2.28877e-07
2.28996e-07
2.29218e-07
2.29505e-07
2.29789e-07
2.30057e-07
2.30207e-07
2.30238e-07
2.30274e-07
2.30398e-07
2.30592e-07
2.30652e-07
2.30505e-07
2.30324e-07
2.20939e-07
2.11621e-07
2.06305e-07
2.02346e-07
1.96398e-07
1.89339e-07
1.83589e-07
1.78785e-07
1.7399e-07
1.67936e-07
1.61699e-07
1.55985e-07
1.52645e-07
1.51853e-07
1.49391e-07
1.44613e-07
1.39885e-07
1.37156e-07
1.35631e-07
1.33411e-07
1.31007e-07
1.29274e-07
1.27383e-07
1.25608e-07
1.24611e-07
1.23737e-07
1.22356e-07
1.20892e-07
1.19873e-07
1.19929e-07
1.20855e-07
1.21024e-07
1.20235e-07
1.19859e-07
1.20717e-07
1.22684e-07
1.24259e-07
1.24635e-07
1.25402e-07
1.27848e-07
1.31293e-07
1.34102e-07
1.36921e-07
1.40725e-07
1.46107e-07
1.53388e-07
1.60618e-07
1.67675e-07
1.76432e-07
1.87679e-07
1.91074e-07
1.90952e-07
1.90831e-07
1.90704e-07
1.90561e-07
1.90431e-07
1.90302e-07
1.90088e-07
1.89788e-07
1.89505e-07
1.89294e-07
1.89093e-07
1.88799e-07
1.88404e-07
1.88e-07
1.87765e-07
1.87789e-07
1.87962e-07
1.88083e-07
1.88146e-07
1.88222e-07
1.88364e-07
1.88579e-07
1.81402e-07
1.69508e-07
1.59792e-07
1.51979e-07
1.44995e-07
1.38563e-07
1.32709e-07
1.27444e-07
1.22772e-07
1.18665e-07
1.15063e-07
1.11883e-07
1.08959e-07
1.06252e-07
1.03646e-07
1.01195e-07
9.93118e-08
9.76962e-08
9.61204e-08
9.46119e-08
9.32408e-08
9.20025e-08
9.09314e-08
9.00533e-08
8.92383e-08
8.84676e-08
8.77081e-08
8.68497e-08
8.61748e-08
8.59516e-08
8.58765e-08
8.58354e-08
8.56566e-08
8.52846e-08
8.50861e-08
8.51464e-08
8.54366e-08
8.58711e-08
8.60247e-08
8.61641e-08
8.64216e-08
8.67107e-08
8.71228e-08
8.78162e-08
8.84512e-08
8.91188e-08
8.97774e-08
9.06311e-08
9.16649e-08
9.27375e-08
9.36906e-08
9.4659e-08
9.5817e-08
9.73208e-08
9.8995e-08
1.00716e-07
1.02041e-07
1.03176e-07
1.04555e-07
1.07272e-07
1.09212e-07
1.11559e-07
1.12767e-07
1.16095e-07
1.16984e-07
1.21405e-07
1.2063e-07
1.19912e-07
1.22789e-07
1.23858e-07
1.32981e-07
1.36839e-07
1.56715e-07
1.49359e-07
1.29303e-07
1.38089e-07
1.34697e-07
1.7121e-07
2.4626e-07
2.45265e-07
7.55618e-08
7.77708e-08
5.45571e-08
4.09273e-08
2.71439e-08
3.30478e-08
6.16035e-08
7.1307e-08
7.04606e-08
7.22467e-08
1.18478e-07
1.06425e-07
1.43281e-07
1.58733e-07
1.77791e-07
1.63697e-07
2.25737e-07
2.01681e-07
9.8816e-08
2.26882e-07
1.81571e-07
2.1123e-07
1.28606e-07
2.22471e-07
6.42989e-08
1.02954e-07
2.54103e-07
3.05993e-07
1.28846e-07
3.10348e-07
2.30815e-07
3.16147e-07
3.08772e-07
2.98963e-07
2.89528e-07
2.83193e-07
2.77498e-07
1.04186e-07
1.17838e-07
4.70916e-08
4.72425e-08
2.59472e-08
2.79472e-08
1.1745e-08
1.58868e-08
9.80383e-08
7.35355e-08
2.83465e-08
6.88338e-08
1.15736e-07
7.62763e-08
6.29838e-08
7.02839e-08
8.25305e-08
1.14382e-07
1.42197e-07
1.46428e-07
1.48159e-07
1.59781e-07
1.6483e-07
1.63887e-07
1.57196e-07
1.41001e-07
1.33717e-07
1.34274e-07
1.33827e-07
1.30719e-07
1.26584e-07
1.26223e-07
1.25711e-07
1.21633e-07
1.17423e-07
1.15422e-07
1.14418e-07
1.12566e-07
1.1e-07
1.09616e-07
1.10477e-07
1.08534e-07
1.05086e-07
1.02394e-07
1.01385e-07
1.02813e-07
1.04126e-07
1.05173e-07
1.05474e-07
1.05704e-07
1.06422e-07
1.0841e-07
1.11326e-07
1.1296e-07
1.13612e-07
1.14588e-07
1.15557e-07
1.16106e-07
1.16809e-07
1.18119e-07
1.20094e-07
1.22535e-07
1.24615e-07
1.26184e-07
1.27594e-07
1.29376e-07
1.31736e-07
1.34167e-07
1.36449e-07
1.38371e-07
1.40476e-07
1.43405e-07
1.46416e-07
1.48896e-07
1.49059e-07
1.51654e-07
1.51806e-07
1.61007e-07
1.5833e-07
1.63364e-07
1.56565e-07
1.63143e-07
1.95326e-07
1.66683e-07
9.75941e-08
1.28042e-07
4.89328e-08
4.24964e-08
2.02672e-08
2.06852e-08
3.15497e-08
3.64777e-09
7.54049e-09
4.17935e-08
3.71489e-08
1.8802e-08
8.52953e-09
6.4107e-09
5.03317e-09
4.38514e-09
4.59249e-09
6.55102e-09
1.2336e-08
1.17036e-08
1.45761e-08
2.10159e-08
3.51869e-08
7.04588e-08
6.74424e-08
6.42716e-08
6.84466e-08
8.30542e-08
1.11982e-07
1.61453e-07
2.41712e-07
3.56357e-07
4.91167e-07
6.07989e-07
6.76649e-07
7.12536e-07
7.4175e-07
7.64292e-07
7.66018e-07
7.73455e-07
7.9368e-07
8.12248e-07
8.02803e-07
7.63137e-07
7.0302e-07
5.97866e-07
4.6884e-07
3.79955e-07
3.56279e-07
3.69949e-07
3.67551e-07
3.14226e-07
2.52343e-07
2.28087e-07
2.37799e-07
2.61935e-07
2.64865e-07
1.77754e-07
1.07238e-07
8.56909e-08
7.67227e-08
6.76998e-08
6.46589e-08
7.44527e-08
1.29171e-07
1.86098e-07
1.99403e-07
1.99929e-07
1.97111e-07
1.94299e-07
1.34314e-07
1.04892e-07
8.37323e-08
6.98608e-08
7.90417e-08
1.25285e-07
1.32731e-07
1.42818e-07
1.54766e-07
1.67375e-07
1.77731e-07
1.87364e-07
1.97415e-07
2.08514e-07
2.20659e-07
2.33983e-07
2.48628e-07
2.66256e-07
2.8438e-07
3.00524e-07
3.07414e-07
3.18723e-07
3.06179e-07
2.77943e-07
2.53479e-07
2.28981e-07
1.99662e-07
1.7785e-07
1.56655e-07
1.40292e-07
1.34533e-07
1.37583e-07
1.45288e-07
1.55227e-07
1.60333e-07
1.59181e-07
1.55188e-07
1.5159e-07
1.40229e-07
1.27674e-07
1.13478e-07
9.98721e-08
8.67119e-08
7.58825e-08
7.0648e-08
6.78749e-08
4.52892e-08
2.86488e-08
1.89382e-08
2.29149e-08
4.05639e-08
2.72122e-08
2.10219e-08
2.00369e-08
2.211e-08
2.83781e-08
4.14307e-08
4.76083e-08
2.62427e-08
1.80988e-08
2.68127e-08
3.59876e-08
3.31962e-08
2.56904e-08
2.328e-08
1.81606e-08
2.08165e-08
2.76228e-08
2.90153e-08
3.042e-08
2.87687e-08
2.74678e-08
2.62352e-08
2.72024e-08
2.97442e-08
3.07044e-08
3.29033e-08
3.34786e-08
3.39674e-08
3.56183e-08
3.7179e-08
3.78563e-08
3.91177e-08
4.12504e-08
4.44256e-08
4.76419e-08
4.94774e-08
5.10199e-08
5.33166e-08
5.69549e-08
6.25528e-08
6.89595e-08
7.37503e-08
7.66301e-08
8.07509e-08
8.73178e-08
9.53566e-08
1.06521e-07
1.22967e-07
1.39421e-07
1.55074e-07
1.73768e-07
1.94818e-07
2.10488e-07
2.60555e-07
2.81108e-07
2.80067e-07
2.79195e-07
2.78933e-07
2.79498e-07
2.5249e-07
2.19724e-07
1.94429e-07
1.7196e-07
1.5555e-07
1.37538e-07
1.19898e-07
1.0551e-07
9.60771e-08
8.90289e-08
8.26855e-08
7.72191e-08
7.25898e-08
6.83626e-08
6.46929e-08
6.03973e-08
5.51903e-08
5.07354e-08
4.75708e-08
4.53785e-08
4.38933e-08
4.24209e-08
4.01658e-08
3.7839e-08
3.59645e-08
3.41088e-08
3.29914e-08
3.22788e-08
3.15804e-08
3.08963e-08
3.00449e-08
2.92009e-08
2.82744e-08
2.78211e-08
2.80951e-08
2.87696e-08
2.90472e-08
2.84334e-08
2.82259e-08
2.86712e-08
2.91424e-08
2.97599e-08
3.07773e-08
3.1695e-08
3.22062e-08
3.2936e-08
3.40522e-08
3.55045e-08
3.72858e-08
3.90003e-08
3.9789e-08
4.02895e-08
4.25957e-08
4.56283e-08
4.92081e-08
5.26778e-08
5.49739e-08
5.73363e-08
6.0248e-08
6.44504e-08
6.75623e-08
7.06536e-08
7.56962e-08
8.10419e-08
8.94079e-08
1.01416e-07
1.11976e-07
1.16495e-07
1.14848e-07
1.17307e-07
1.28674e-07
1.48938e-07
1.71594e-07
1.9153e-07
1.931e-07
1.80401e-07
1.82267e-07
1.97563e-07
2.18067e-07
2.55268e-07
2.62383e-07
2.23383e-07
2.01927e-07
1.98605e-07
2.06486e-07
2.28828e-07
2.3453e-07
2.09731e-07
1.82039e-07
1.7106e-07
1.70061e-07
1.67768e-07
1.61189e-07
1.53824e-07
1.47571e-07
1.39176e-07
1.32595e-07
1.28258e-07
1.25817e-07
1.24869e-07
1.19082e-07
1.09661e-07
1.03994e-07
1.02151e-07
1.02294e-07
1.01502e-07
9.80041e-08
9.39184e-08
9.11878e-08
8.89465e-08
8.61593e-08
8.44212e-08
8.34744e-08
8.28441e-08
8.23726e-08
8.09787e-08
7.86579e-08
7.67588e-08
7.57978e-08
7.57485e-08
7.63268e-08
7.646e-08
7.5648e-08
7.45969e-08
7.39159e-08
7.4116e-08
7.53089e-08
7.63877e-08
7.64978e-08
7.64154e-08
7.73497e-08
7.94176e-08
8.11535e-08
8.17971e-08
8.25325e-08
8.47627e-08
8.80783e-08
9.086e-08
9.32909e-08
9.61373e-08
1.00109e-07
1.06152e-07
1.12216e-07
1.17327e-07
1.23511e-07
1.3161e-07
1.42042e-07
1.55352e-07
1.70629e-07
1.87973e-07
2.09304e-07
2.37003e-07
2.73342e-07
3.21031e-07
3.83923e-07
4.61245e-07
5.33605e-07
5.51475e-07
4.97172e-07
4.15135e-07
3.44707e-07
2.93863e-07
2.54163e-07
2.23004e-07
1.98215e-07
1.78872e-07
1.63239e-07
1.49719e-07
1.37996e-07
1.27954e-07
1.19604e-07
1.13447e-07
1.08803e-07
1.04183e-07
9.97427e-08
9.57437e-08
9.21285e-08
8.88963e-08
8.6108e-08
8.3854e-08
8.19782e-08
8.01855e-08
7.84846e-08
7.67143e-08
7.51232e-08
7.42245e-08
7.33896e-08
7.24454e-08
7.1569e-08
7.07964e-08
7.02643e-08
6.99013e-08
6.955e-08
6.90663e-08
6.86076e-08
6.84685e-08
6.83608e-08
6.80887e-08
6.79455e-08
6.81013e-08
6.85635e-08
6.87963e-08
6.87619e-08
6.88647e-08
6.93882e-08
7.0104e-08
7.07148e-08
7.10305e-08
7.13245e-08
7.17611e-08
7.21851e-08
7.28304e-08
7.39118e-08
7.49412e-08
7.56471e-08
7.63833e-08
7.72459e-08
7.87707e-08
7.9966e-08
8.10463e-08
8.18132e-08
8.31155e-08
8.4682e-08
8.7064e-08
8.89222e-08
9.08529e-08
9.15563e-08
9.26697e-08
9.43041e-08
9.77793e-08
1.00317e-07
1.03649e-07
1.04508e-07
1.02103e-07
1.03975e-07
1.02856e-07
1.10655e-07
1.1626e-07
1.29543e-07
1.24885e-07
1.08204e-07
1.14951e-07
1.12064e-07
1.40807e-07
6.05712e-07
2.45903e-07
6.49751e-08
6.45646e-08
4.52069e-08
3.39872e-08
2.3108e-08
2.82525e-08
4.8671e-08
4.74011e-08
6.13394e-08
8.69675e-08
1.88027e-07
1.26089e-07
1.23795e-07
1.63222e-07
1.32231e-07
2.04653e-07
1.47345e-07
9.27433e-08
8.53048e-08
1.47198e-07
1.66483e-07
1.81233e-07
1.05141e-07
2.1266e-07
6.45967e-08
1.4941e-07
2.25649e-07
4.65682e-07
1.08021e-07
1.15243e-06
2.63701e-07
6.55899e-07
5.38611e-07
4.15511e-07
2.53442e-07
2.33537e-07
2.26577e-07
1.098e-07
1.08719e-07
4.61397e-08
4.01479e-08
2.01907e-08
2.18898e-08
9.44388e-09
1.22931e-08
5.37969e-08
1.01981e-07
2.82031e-08
2.9654e-08
1.52828e-08
2.59127e-08
2.09225e-07
9.1855e-08
6.02473e-08
5.81287e-08
6.84128e-08
8.48348e-08
1.07074e-07
1.20583e-07
1.23105e-07
1.34962e-07
1.48261e-07
1.46163e-07
1.37304e-07
1.21795e-07
1.11603e-07
1.12164e-07
1.13985e-07
1.09499e-07
1.05198e-07
1.04156e-07
1.03877e-07
1.00856e-07
9.69069e-08
9.57988e-08
9.67962e-08
9.65887e-08
9.48649e-08
9.12776e-08
9.00572e-08
9.01783e-08
8.90546e-08
8.85833e-08
8.97622e-08
9.0772e-08
8.98907e-08
8.74791e-08
8.52544e-08
8.40145e-08
8.42429e-08
8.50505e-08
8.70747e-08
8.8354e-08
8.90256e-08
9.08214e-08
9.21927e-08
9.18017e-08
9.14292e-08
9.27816e-08
9.55962e-08
9.90171e-08
1.02182e-07
1.04381e-07
1.05766e-07
1.06802e-07
1.08032e-07
1.0985e-07
1.12042e-07
1.14404e-07
1.16624e-07
1.18756e-07
1.20753e-07
1.2241e-07
1.24408e-07
1.25342e-07
1.3037e-07
1.31025e-07
1.38693e-07
1.34487e-07
1.40723e-07
1.36099e-07
1.42607e-07
1.75011e-07
1.4778e-07
8.25646e-08
1.05367e-07
4.01184e-08
3.46202e-08
1.64298e-08
1.70024e-08
2.77873e-08
3.45787e-09
9.72102e-09
5.14417e-08
4.808e-08
1.57651e-08
7.89413e-09
7.0456e-09
6.59726e-09
6.72997e-09
8.66039e-09
1.3743e-08
1.07655e-07
4.08375e-08
6.10383e-08
1.15832e-07
1.12027e-07
1.03383e-07
9.64164e-08
9.94527e-08
1.13697e-07
1.40009e-07
1.82839e-07
2.44825e-07
3.22566e-07
4.05556e-07
4.91146e-07
5.83042e-07
6.19093e-07
6.20289e-07
6.35724e-07
6.49064e-07
6.54516e-07
6.64998e-07
6.77493e-07
6.79357e-07
6.57191e-07
6.08891e-07
5.36854e-07
4.35706e-07
3.34513e-07
2.67229e-07
2.40432e-07
2.37383e-07
2.30433e-07
2.02265e-07
1.71552e-07
1.57246e-07
1.58097e-07
1.65942e-07
1.65838e-07
1.23336e-07
6.91689e-08
4.85056e-08
3.95149e-08
3.81287e-08
4.876e-08
7.67148e-08
1.20246e-07
1.2406e-07
1.2543e-07
1.25592e-07
1.27672e-07
1.2985e-07
1.25251e-07
8.9517e-08
6.02739e-08
4.38145e-08
3.74817e-08
4.89734e-08
8.91283e-08
1.2489e-07
1.30948e-07
1.38208e-07
1.46927e-07
1.56876e-07
1.68358e-07
1.80851e-07
1.93746e-07
2.06802e-07
2.19653e-07
2.31933e-07
2.43466e-07
2.54563e-07
2.66672e-07
2.76303e-07
2.83611e-07
2.85147e-07
2.76554e-07
2.63549e-07
2.37863e-07
2.08475e-07
1.81941e-07
1.61363e-07
1.45323e-07
1.31389e-07
1.21302e-07
1.19633e-07
1.23677e-07
1.2577e-07
1.24758e-07
1.20128e-07
1.12985e-07
1.04969e-07
9.69887e-08
8.9599e-08
8.32936e-08
5.79115e-08
4.71862e-08
4.28257e-08
4.6813e-08
6.0531e-08
4.8718e-08
3.6551e-08
2.75362e-08
1.69372e-08
1.74669e-08
2.38876e-08
1.93999e-08
1.44745e-08
1.23853e-08
1.55416e-08
2.09008e-08
3.30042e-08
2.75966e-08
1.60712e-08
1.12055e-08
1.83567e-08
3.01933e-08
2.73044e-08
2.19427e-08
2.06584e-08
1.61392e-08
1.84738e-08
2.40993e-08
2.48743e-08
2.57185e-08
2.54953e-08
2.40592e-08
2.30134e-08
2.49647e-08
2.78753e-08
2.85596e-08
2.99552e-08
2.98834e-08
2.99077e-08
3.15663e-08
3.41874e-08
3.66988e-08
3.87593e-08
3.9504e-08
4.07395e-08
4.35204e-08
4.66425e-08
4.97679e-08
5.34999e-08
5.75806e-08
6.18278e-08
6.52553e-08
6.92142e-08
7.43192e-08
8.09102e-08
9.09544e-08
1.03003e-07
1.1581e-07
1.30043e-07
1.41461e-07
1.47143e-07
1.66115e-07
2.23448e-07
2.75489e-07
2.45199e-07
2.04283e-07
1.78055e-07
1.6438e-07
1.54824e-07
1.44168e-07
1.30037e-07
1.14283e-07
9.82402e-08
8.47029e-08
7.72275e-08
7.44157e-08
7.06455e-08
6.58248e-08
6.08563e-08
5.58709e-08
5.22393e-08
4.99857e-08
4.80498e-08
4.50178e-08
4.18084e-08
3.92614e-08
3.70576e-08
3.55616e-08
3.48065e-08
3.38918e-08
3.27033e-08
3.13067e-08
2.96725e-08
2.86742e-08
2.84664e-08
2.83645e-08
2.78716e-08
2.68503e-08
2.58496e-08
2.54747e-08
2.56327e-08
2.62138e-08
2.67074e-08
2.6384e-08
2.56114e-08
2.54924e-08
2.62881e-08
2.70921e-08
2.77995e-08
2.90047e-08
2.97757e-08
2.97785e-08
3.00228e-08
3.10041e-08
3.31287e-08
3.55223e-08
3.74074e-08
3.8252e-08
3.81123e-08
3.93306e-08
4.15176e-08
4.50268e-08
4.99161e-08
5.37371e-08
5.6111e-08
5.76063e-08
5.97933e-08
6.30098e-08
6.81777e-08
7.34595e-08
7.83139e-08
8.73045e-08
9.79903e-08
1.03515e-07
1.05066e-07
1.06749e-07
1.15487e-07
1.32437e-07
1.55878e-07
1.76734e-07
1.88124e-07
1.81181e-07
1.69465e-07
1.76051e-07
2.00489e-07
2.31426e-07
2.68473e-07
2.72799e-07
2.26796e-07
2.03734e-07
2.0513e-07
2.1979e-07
2.38164e-07
2.1909e-07
1.93093e-07
1.80041e-07
1.74449e-07
1.72996e-07
1.71139e-07
1.60468e-07
1.46207e-07
1.39114e-07
1.32329e-07
1.27984e-07
1.2636e-07
1.25308e-07
1.21857e-07
1.14221e-07
1.05683e-07
1.00296e-07
9.75335e-08
9.65852e-08
9.69036e-08
9.517e-08
9.21243e-08
8.84022e-08
8.41708e-08
8.09597e-08
7.98195e-08
8.06823e-08
8.09572e-08
7.9269e-08
7.70144e-08
7.47969e-08
7.30977e-08
7.2514e-08
7.3076e-08
7.33824e-08
7.27558e-08
7.19411e-08
7.13522e-08
7.1077e-08
7.1086e-08
7.1659e-08
7.23876e-08
7.26365e-08
7.32104e-08
7.45449e-08
7.59569e-08
7.70171e-08
7.79243e-08
7.90532e-08
8.11828e-08
8.39752e-08
8.66334e-08
8.91026e-08
9.19214e-08
9.56809e-08
1.00852e-07
1.06342e-07
1.11309e-07
1.16972e-07
1.24375e-07
1.33829e-07
1.45519e-07
1.58732e-07
1.73304e-07
1.906e-07
2.12354e-07
2.3856e-07
2.68098e-07
3.02555e-07
3.42529e-07
3.75686e-07
3.82564e-07
3.59698e-07
3.19833e-07
2.79794e-07
2.49012e-07
2.24927e-07
2.03304e-07
1.83479e-07
1.66572e-07
1.5269e-07
1.40603e-07
1.2983e-07
1.20752e-07
1.13907e-07
1.09116e-07
1.04806e-07
1.00173e-07
9.59474e-08
9.23276e-08
8.90704e-08
8.58677e-08
8.29765e-08
8.09611e-08
7.94766e-08
7.78768e-08
7.62117e-08
7.45062e-08
7.31302e-08
7.23854e-08
7.15375e-08
7.05964e-08
6.97612e-08
6.90739e-08
6.86305e-08
6.83032e-08
6.79547e-08
6.75254e-08
6.71275e-08
6.71103e-08
6.7245e-08
6.70672e-08
6.66879e-08
6.67504e-08
6.72159e-08
6.75488e-08
6.77416e-08
6.79988e-08
6.85196e-08
6.90737e-08
6.94698e-08
6.98796e-08
7.03556e-08
7.07776e-08
7.11635e-08
7.17161e-08
7.29195e-08
7.40376e-08
7.49395e-08
7.53942e-08
7.6264e-08
7.77432e-08
7.92902e-08
8.02299e-08
8.10522e-08
8.21938e-08
8.40797e-08
8.61159e-08
8.7933e-08
8.97124e-08
9.1662e-08
9.26934e-08
9.52699e-08
9.66245e-08
9.87305e-08
1.01187e-07
1.06506e-07
1.08178e-07
1.21621e-07
1.12401e-07
1.01124e-07
1.00439e-07
9.77605e-08
1.0406e-07
1.2078e-07
4.31921e-07
2.0768e-07
6.09378e-08
6.04785e-08
4.22246e-08
3.18563e-08
2.21032e-08
2.68996e-08
4.47769e-08
4.19967e-08
5.6587e-08
8.61953e-08
2.55087e-07
2.41194e-07
2.07119e-07
2.76379e-07
1.24691e-07
1.289e-07
1.26514e-07
7.55173e-08
1.5723e-07
3.09066e-07
1.29455e-07
1.09682e-07
8.19408e-08
4.34353e-07
7.27929e-08
1.91608e-07
2.37121e-07
4.58298e-07
1.34705e-07
2.0625e-07
1.62675e-07
3.21686e-07
1.52002e-07
1.96109e-07
2.19617e-07
2.00031e-07
7.50781e-08
8.63199e-08
2.26621e-07
6.00497e-08
4.62728e-08
2.01683e-08
2.20218e-08
9.16081e-09
1.13336e-08
4.15551e-08
9.03146e-08
2.94608e-08
3.16792e-08
1.45897e-08
2.27729e-08
4.54146e-08
9.69871e-08
1.01692e-07
8.55719e-08
1.05482e-07
1.10575e-07
1.03678e-07
9.20454e-08
1.0247e-07
1.22974e-07
1.32575e-07
1.30465e-07
1.34434e-07
1.38724e-07
1.33947e-07
1.24598e-07
1.12705e-07
1.10394e-07
1.15084e-07
1.15641e-07
1.09383e-07
1.03138e-07
1.00755e-07
9.89793e-08
9.57791e-08
9.29188e-08
9.23251e-08
9.31679e-08
9.21485e-08
8.97325e-08
8.6812e-08
8.49549e-08
8.46075e-08
8.53362e-08
8.6571e-08
8.85415e-08
9.00959e-08
8.87162e-08
8.64986e-08
8.43036e-08
8.34036e-08
8.41118e-08
8.52797e-08
8.66373e-08
8.67301e-08
8.6789e-08
8.81408e-08
8.94484e-08
8.98812e-08
9.052e-08
9.22578e-08
9.47518e-08
9.72744e-08
9.94724e-08
1.01246e-07
1.02758e-07
1.04426e-07
1.06369e-07
1.08585e-07
1.10857e-07
1.13046e-07
1.15358e-07
1.17478e-07
1.19271e-07
1.20603e-07
1.23023e-07
1.24681e-07
1.30789e-07
1.3133e-07
1.3686e-07
1.32766e-07
1.41109e-07
1.37026e-07
1.41826e-07
1.72367e-07
1.44319e-07
8.09391e-08
1.05049e-07
3.95897e-08
3.44296e-08
1.62904e-08
1.67883e-08
2.8421e-08
3.34022e-09
1.02116e-08
4.7696e-08
3.92878e-08
1.26918e-08
7.71154e-09
8.13479e-09
9.69791e-09
1.27595e-08
1.62869e-08
1.60921e-08
6.31325e-08
1.29639e-07
1.38868e-07
1.42176e-07
1.39793e-07
1.32605e-07
1.26571e-07
1.34296e-07
1.56713e-07
1.91862e-07
2.34891e-07
2.81858e-07
3.28524e-07
3.74743e-07
4.28764e-07
4.91573e-07
5.03263e-07
5.01036e-07
5.1705e-07
5.33197e-07
5.41669e-07
5.47889e-07
5.52072e-07
5.48098e-07
5.20636e-07
4.74814e-07
4.0975e-07
3.28681e-07
2.55339e-07
2.07526e-07
1.85919e-07
1.78897e-07
1.72445e-07
1.58349e-07
1.29783e-07
1.03104e-07
1.11731e-07
1.39659e-07
1.38806e-07
9.13648e-08
4.96618e-08
3.3718e-08
2.85393e-08
2.9758e-08
4.02909e-08
5.67782e-08
6.39146e-08
6.00929e-08
7.54811e-08
1.13309e-07
1.19113e-07
1.10623e-07
1.27196e-07
9.51466e-08
5.36338e-08
3.43893e-08
2.70341e-08
2.72597e-08
3.34107e-08
4.72398e-08
7.82127e-08
1.11614e-07
1.07737e-07
1.06013e-07
1.23256e-07
1.63678e-07
1.73209e-07
1.8247e-07
1.91313e-07
1.99462e-07
2.0658e-07
2.12465e-07
2.17036e-07
2.20456e-07
2.23387e-07
2.27231e-07
2.31029e-07
2.31634e-07
2.28162e-07
2.20025e-07
2.09934e-07
1.90613e-07
1.72742e-07
1.54765e-07
1.39251e-07
1.26065e-07
1.15839e-07
1.08871e-07
1.07429e-07
1.07412e-07
1.05395e-07
1.02107e-07
9.83989e-08
9.5085e-08
9.2441e-08
9.0413e-08
6.47057e-08
4.48937e-08
3.52484e-08
2.9536e-08
2.81586e-08
3.67297e-08
4.79573e-08
4.30722e-08
3.3094e-08
2.59036e-08
1.64893e-08
1.786e-08
2.28017e-08
1.79698e-08
1.35923e-08
1.16429e-08
1.45126e-08
1.84757e-08
2.94708e-08
2.43092e-08
1.44471e-08
9.64289e-09
1.48649e-08
2.72049e-08
2.56134e-08
2.38048e-08
2.44264e-08
2.0359e-08
1.63641e-08
1.76668e-08
2.45504e-08
2.51828e-08
2.70306e-08
2.65054e-08
2.50636e-08
2.66817e-08
2.87799e-08
2.91985e-08
3.10643e-08
3.2599e-08
3.40918e-08
3.57283e-08
3.73574e-08
3.90721e-08
4.17024e-08
4.42438e-08
4.66081e-08
4.93146e-08
5.313e-08
5.83099e-08
6.25226e-08
6.50864e-08
6.92465e-08
7.41145e-08
8.02905e-08
8.97789e-08
1.0309e-07
1.14605e-07
1.20499e-07
1.25226e-07
1.35427e-07
1.63237e-07
1.91451e-07
1.79615e-07
1.54464e-07
1.35909e-07
1.31975e-07
1.32105e-07
1.27218e-07
1.16597e-07
9.94093e-08
8.31745e-08
7.34679e-08
7.033e-08
6.89418e-08
6.57384e-08
6.19185e-08
5.6935e-08
5.12208e-08
4.76404e-08
4.56303e-08
4.42344e-08
4.26965e-08
4.03388e-08
3.79675e-08
3.5796e-08
3.39511e-08
3.27631e-08
3.22618e-08
3.21803e-08
3.13787e-08
3.00208e-08
2.8905e-08
2.8214e-08
2.78321e-08
2.7372e-08
2.66819e-08
2.60712e-08
2.60411e-08
2.64783e-08
2.68369e-08
2.65879e-08
2.58635e-08
2.52873e-08
2.54788e-08
2.64335e-08
2.71582e-08
2.77712e-08
2.87204e-08
2.91477e-08
2.92202e-08
2.96336e-08
3.07046e-08
3.26042e-08
3.45536e-08
3.62169e-08
3.75676e-08
3.81826e-08
3.91765e-08
4.09952e-08
4.31561e-08
4.65759e-08
5.11717e-08
5.46851e-08
5.67942e-08
5.89186e-08
6.22715e-08
6.77015e-08
7.2706e-08
7.64462e-08
8.28853e-08
9.25979e-08
9.81274e-08
1.01427e-07
1.08748e-07
1.19535e-07
1.36214e-07
1.58174e-07
1.73136e-07
1.74721e-07
1.71078e-07
1.76508e-07