/*--------------------------------*- C++ -*----------------------------------*\
| =========                 |                                                 |
| \\      /  F ield         | OpenFOAM: The Open Source CFD Toolbox           |
|  \\    /   O peration     | Version:  v2006                                 |
|   \\  /    A nd           | Website:  www.openfoam.com                      |
|    \\/     M anipulation  |                                                 |
\*---------------------------------------------------------------------------*/
FoamFile
{
    version     2.0;
    format      ascii;
    class       volScalarField;
    location    "8.9";
    object      p_rgh;
}
// * * * * * * * * * * * * * * * * * * * * * * * * * * * * * * * * * * * * * //

dimensions      [1 -1 -2 0 0 0 0];


internalField   nonuniform List<scalar> 
33000
(
7867.24
7878.37
7885.31
7892
7898.53
7905.19
7912.04
7918.61
7924.68
7930.15
7935.06
7939.6
7943.92
7948.04
7951.92
7955.56
7958.97
7962.35
7965.89
7969.51
7973.39
7977.23
7980.47
7983.2
7985.67
7987.97
7989.95
7991.66
7993.27
7994.81
7996.31
7997.89
7999.34
8000.54
8001.4
8001.8
8001.84
8001.55
8001.06
8000.35
7999.42
7998.31
7997.01
7995.48
7993.85
7992.01
7989.98
7987.78
7985.38
7982.82
7980.16
7977.29
7974.25
7971.07
7967.74
7964.27
7960.66
7956.94
7953.1
7949.13
7945.05
7940.86
7936.65
7932.3
7927.86
7923.34
7918.74
7914.1
7909.4
7904.65
7899.87
7895.09
7890.33
7885.73
7881.02
7876.51
7872.14
7868.51
7864.3
7855.64
7850.48
7844.14
7838.02
7832.05
7825.74
7818.77
7812.28
7805.28
7798.76
7791.75
7784.98
7778
7771.03
7764.11
7757.12
7750.09
7742.93
7735.56
7728.33
7720.57
7712.87
7705.18
7697.59
7690.47
7683.25
7676.18
7669.19
7662.24
7655.38
7648.61
7641.9
7635.36
7628.86
7622.55
7616.23
7610.09
7604.02
7598.06
7592.3
7586.63
7581.18
7575.82
7570.64
7565.61
7560.86
7556.25
7551.89
7547.7
7543.75
7540.01
7536.55
7533.36
7530.46
7527.77
7525.36
7523.21
7521.36
7519.8
7518.51
7517.51
7516.79
7516.4
7516.3
7516.51
7516.99
7517.75
7518.79
7520.1
7521.7
7523.61
7525.74
7528.13
7530.76
7533.64
7536.76
7540.12
7543.69
7547.47
7551.45
7555.63
7559.99
7564.53
7569.24
7574.11
7579.12
7584.28
7589.58
7594.99
7600.51
7606.12
7611.83
7617.63
7623.52
7629.45
7635.43
7641.44
7647.48
7653.55
7659.67
7665.79
7671.91
7678.01
7684.08
7690.13
7696.14
7702.12
7708.06
7713.95
7719.77
7725.52
7731.2
7736.81
7742.34
7747.8
7753.17
7758.43
7763.6
7768.65
7773.59
7778.44
7783.19
7787.85
7792.4
7796.83
7801.15
7805.37
7809.48
7813.51
7817.44
7821.27
7825
7828.66
7832.25
7835.76
7839.19
7842.54
7845.82
7849.03
7852.2
7855.32
7858.38
7861.39
7864.34
7867.24
7870.09
7872.9
7875.68
7878.43
7881.13
7883.79
7886.41
7888.99
7891.54
7894.06
7896.56
7899.01
7901.43
7903.82
7906.17
7908.49
7910.77
7913.02
7915.24
7917.44
7919.61
7921.74
7923.85
7925.92
7927.96
7930
7932
7933.99
7935.94
7937.88
7939.79
7941.68
7943.55
7945.42
7947.26
7949.08
7950.88
7952.66
7954.43
7956.19
7957.93
7959.66
7961.36
7963.05
7964.72
7966.38
7968.03
7969.65
7971.25
7972.83
7974.38
7975.92
7977.43
7978.92
7980.39
7981.82
7983.22
7984.59
7985.93
7987.22
7988.49
7989.71
7990.89
7992.03
7993.11
7994.15
7995.12
7996.05
7996.91
7997.72
7998.46
7999.13
7999.73
8000.25
8000.71
8001.09
8001.39
8001.61
8001.74
8001.79
8001.75
8001.63
8001.41
8001.11
8000.71
8000.23
7999.65
7998.98
7998.22
7997.36
7996.41
7995.38
7994.25
7993.04
7991.74
7990.36
7988.9
7987.36
7985.74
7984.05
7982.29
7980.46
7978.56
7976.61
7974.6
7972.54
7970.43
7968.28
7966.08
7963.85
7961.58
7959.28
7956.96
7954.62
7952.26
7949.88
7947.5
7945.11
7942.71
7940.32
7937.92
7935.54
7933.16
7930.79
7928.44
7926.1
7923.78
7921.49
7919.22
7916.97
7914.75
7912.56
7910.39
7908.26
7906.15
7904.08
7902.04
7900.04
7898.07
7896.14
7894.24
7892.37
7890.55
7888.76
7887.01
7885.29
7883.61
7881.98
7880.37
7878.81
7877.28
7875.78
7874.33
7872.9
7871.51
7870.16
7868.84
7867.55
7866.29
7865.07
7863.87
7862.71
7861.57
7860.46
7859.39
7858.34
7857.31
7856.32
7855.35
7854.41
7853.49
7852.6
7851.73
7850.89
7850.06
7849.27
7848.49
7847.73
7846.99
7846.28
7845.58
7844.91
7844.25
7843.61
7842.99
7842.39
7841.81
7841.24
7840.69
7840.16
7839.65
7839.15
7838.68
7838.21
7837.77
7837.34
7836.93
7836.54
7836.16
7835.8
7835.46
7835.12
7834.8
7834.5
7834.2
7833.96
7833.69
7833.4
7833.16
7832.9
7832.68
7832.46
7832.26
7832.06
7831.88
7831.71
7831.54
7831.39
7831.23
7831.07
7830.93
7830.79
7830.62
7830.55
7830.38
7830.14
7829.97
7829.77
7829.61
7829.42
7829.26
7829.08
7828.91
7828.73
7828.56
7828.36
7828.18
7827.97
7827.77
7827.55
7827.35
7827.09
7826.91
7826.63
7826.26
7826.13
7825.93
7825.7
7825.44
7825.15
7824.85
7824.53
7824.2
7823.85
7823.48
7823.09
7822.68
7822.25
7821.81
7821.35
7820.87
7820.37
7819.86
7819.33
7818.78
7818.21
7817.63
7817.04
7816.42
7815.79
7815.15
7814.49
7813.82
7813.14
7812.44
7811.73
7811.01
7810.28
7809.54
7808.8
7808.04
7807.28
7806.51
7805.73
7804.95
7804.16
7803.37
7802.57
7801.78
7800.98
7800.18
7799.38
7798.58
7797.78
7796.98
7796.18
7795.39
7794.59
7793.8
7793.02
7792.24
7791.46
7790.69
7789.92
7789.15
7788.4
7787.64
7786.9
7786.16
7785.42
7784.69
7783.97
7783.26
7782.55
7781.85
7781.15
7780.46
7779.78
7779.11
7778.44
7777.78
7777.13
7776.48
7775.89
7775.1
7774.7
7867.56
7878.56
7885.49
7892.12
7898.59
7905.21
7911.84
7918.25
7924.21
7929.64
7934.6
7939.19
7943.56
7947.82
7951.7
7955.28
7958.54
7961.82
7965.47
7969.23
7973.41
7977.56
7981.03
7983.82
7986.31
7988.46
7990.28
7991.88
7993.38
7994.9
7996.43
7997.93
7999.43
8000.71
8001.64
8002.12
8002.2
8001.83
8001.43
8000.79
7999.87
7998.73
7997.32
7995.74
7994.19
7992.43
7990.4
7988.16
7985.68
7983.12
7980.52
7977.68
7974.64
7971.44
7968.09
7964.59
7960.97
7957.2
7953.25
7949.2
7945.19
7940.99
7936.71
7932.45
7928.02
7923.48
7918.86
7914.18
7909.44
7904.63
7899.73
7894.84
7890
7885.19
7880.48
7875.6
7870.64
7865.88
7861.32
7856.15
7852.63
7847.08
7837.05
7832.11
7824.98
7818.89
7812.15
7805.94
7799.37
7791.98
7785.2
7777.91
7771.03
7763.95
7756.98
7749.65
7742.47
7734.97
7727.37
7719.54
7712.08
7704.7
7697.57
7690.43
7683.13
7676.02
7668.98
7662.09
7655.21
7648.37
7641.63
7635.05
7628.56
7622.24
7615.94
7609.73
7603.63
7597.62
7591.93
7586.22
7580.72
7575.33
7570.16
7565.22
7560.4
7555.84
7551.41
7547.26
7543.26
7539.54
7536.06
7532.88
7529.98
7527.3
7524.88
7522.75
7520.9
7519.34
7518.04
7517
7516.3
7515.9
7515.8
7516.03
7516.53
7517.29
7518.29
7519.6
7521.24
7523.18
7525.32
7527.72
7530.34
7533.22
7536.36
7539.72
7543.32
7547.11
7551.1
7555.28
7559.66
7564.22
7568.95
7573.82
7578.83
7583.98
7589.32
7594.76
7600.28
7605.88
7611.6
7617.44
7623.35
7629.3
7635.29
7641.31
7647.33
7653.42
7659.53
7665.65
7671.82
7677.94
7684.04
7690.09
7696.09
7702.04
7707.99
7713.92
7719.75
7725.52
7731.19
7736.79
7742.32
7747.77
7753.16
7758.44
7763.61
7768.65
7773.59
7778.45
7783.2
7787.87
7792.42
7796.86
7801.17
7805.39
7809.51
7813.55
7817.48
7821.31
7825.03
7828.69
7832.3
7835.82
7839.26
7842.61
7845.9
7849.09
7852.26
7855.37
7858.46
7861.47
7864.43
7867.33
7870.16
7872.97
7875.75
7878.5
7881.21
7883.87
7886.5
7889.06
7891.61
7894.13
7896.62
7899.09
7901.52
7903.91
7906.26
7908.57
7910.85
7913.07
7915.3
7917.49
7919.67
7921.81
7923.91
7925.98
7928.01
7930.04
7932.06
7934.04
7936
7937.93
7939.83
7941.71
7943.59
7945.44
7947.29
7949.11
7950.91
7952.7
7954.46
7956.22
7957.97
7959.69
7961.38
7963.07
7964.74
7966.41
7968.06
7969.68
7971.28
7972.86
7974.41
7975.95
7977.47
7978.96
7980.43
7981.87
7983.28
7984.65
7985.99
7987.28
7988.55
7989.78
7990.97
7992.11
7993.2
7994.24
7995.22
7996.14
7997.01
7997.82
7998.57
7999.25
7999.85
8000.38
8000.84
8001.23
8001.53
8001.76
8001.89
8001.95
8001.91
8001.79
8001.58
8001.28
8000.89
8000.4
7999.83
7999.16
7998.39
7997.54
7996.59
7995.55
7994.43
7993.21
7991.91
7990.53
7989.06
7987.52
7985.9
7984.2
7982.43
7980.6
7978.7
7976.75
7974.73
7972.66
7970.55
7968.39
7966.19
7963.94
7961.67
7959.37
7957.04
7954.69
7952.33
7949.94
7947.55
7945.15
7942.75
7940.35
7937.95
7935.56
7933.18
7930.81
7928.45
7926.11
7923.79
7921.49
7919.21
7916.96
7914.74
7912.54
7910.37
7908.23
7906.13
7904.05
7902.01
7900.01
7898.04
7896.1
7894.2
7892.33
7890.51
7888.72
7886.96
7885.25
7883.57
7881.93
7880.32
7878.76
7877.23
7875.73
7874.28
7872.85
7871.46
7870.11
7868.79
7867.5
7866.24
7865.01
7863.82
7862.65
7861.52
7860.41
7859.33
7858.28
7857.26
7856.27
7855.3
7854.36
7853.44
7852.55
7851.68
7850.84
7850.01
7849.22
7848.44
7847.68
7846.95
7846.23
7845.53
7844.86
7844.2
7843.57
7842.95
7842.35
7841.76
7841.2
7840.65
7840.12
7839.61
7839.11
7838.64
7838.17
7837.73
7837.3
7836.9
7836.5
7836.12
7835.76
7835.41
7835.07
7834.8
7834.5
7834.17
7833.89
7833.63
7833.36
7833.12
7832.87
7832.66
7832.43
7832.24
7832.04
7831.87
7831.69
7831.52
7831.36
7831.22
7831.06
7830.99
7830.84
7830.6
7830.45
7830.26
7830.09
7829.92
7829.75
7829.59
7829.42
7829.25
7829.09
7828.91
7828.74
7828.56
7828.37
7828.19
7828
7827.79
7827.6
7827.34
7827.01
7826.89
7826.7
7826.46
7826.23
7825.99
7825.75
7825.48
7825.2
7824.9
7824.59
7824.25
7823.9
7823.53
7823.14
7822.73
7822.31
7821.86
7821.4
7820.92
7820.43
7819.91
7819.38
7818.83
7818.26
7817.68
7817.08
7816.46
7815.83
7815.19
7814.53
7813.85
7813.17
7812.47
7811.76
7811.04
7810.31
7809.57
7808.82
7808.06
7807.29
7806.52
7805.74
7804.96
7804.17
7803.38
7802.58
7801.78
7800.98
7800.18
7799.38
7798.58
7797.78
7796.98
7796.18
7795.38
7794.59
7793.8
7793.01
7792.23
7791.45
7790.67
7789.9
7789.14
7788.38
7787.63
7786.88
7786.14
7785.41
7784.68
7783.96
7783.24
7782.53
7781.83
7781.13
7780.45
7779.77
7779.09
7778.42
7777.76
7777.11
7776.46
7775.87
7775.08
7774.68
7868.19
7879.17
7886.15
7892.87
7899.42
7905.96
7912.35
7918.52
7924.31
7929.69
7934.55
7939.11
7943.73
7948.24
7952.22
7955.53
7958.57
7961.65
7964.98
7969.16
7973.54
7977.9
7981.8
7984.96
7987.52
7989.63
7991.26
7992.5
7993.7
7995.09
7996.63
7998.1
7999.56
8000.89
8001.88
8002.49
8002.6
8002.26
8002
8001.51
8000.61
7999.43
7997.88
7996.39
7994.87
7993.24
7991.21
7988.93
7986.37
7983.8
7981.15
7978.43
7975.4
7972.18
7968.8
7965.23
7961.44
7957.61
7953.72
7949.86
7945.82
7941.49
7936.93
7932.51
7928.04
7923.67
7919.13
7914.41
7909.62
7904.73
7899.69
7894.72
7889.78
7884.99
7880.08
7875.08
7870.05
7864.96
7859.66
7853.85
7848.34
7842.85
7836.72
7835.42
7829.15
7818.69
7812.28
7804.86
7798.67
7791.79
7785.23
7778.35
7770.98
7764.1
7756.64
7749.57
7742.06
7734.87
7727.3
7720.02
7712.62
7704.85
7697.17
7689.86
7682.63
7675.65
7668.83
7661.7
7654.79
7647.86
7641.15
7634.6
7628.04
7621.77
7615.38
7609.23
7603.03
7597.08
7591.23
7585.61
7579.95
7574.55
7569.25
7564.22
7559.57
7554.99
7550.7
7546.39
7542.31
7538.51
7535.14
7531.99
7529.13
7526.35
7523.87
7521.65
7519.85
7518.33
7517.04
7516.01
7515.28
7514.9
7514.81
7515.09
7515.58
7516.28
7517.31
7518.66
7520.36
7522.31
7524.46
7526.8
7529.44
7532.46
7535.63
7538.99
7542.51
7546.3
7550.32
7554.57
7559.03
7563.61
7568.36
7573.24
7578.23
7583.42
7588.79
7594.28
7599.81
7605.42
7611.18
7617.02
7622.98
7628.97
7634.99
7641.04
7647.08
7653.16
7659.29
7665.43
7671.62
7677.8
7683.91
7689.98
7695.99
7701.94
7707.89
7713.81
7719.71
7725.5
7731.21
7736.8
7742.31
7747.75
7753.13
7758.45
7763.63
7768.68
7773.61
7778.46
7783.24
7787.92
7792.47
7796.9
7801.21
7805.45
7809.59
7813.64
7817.57
7821.39
7825.11
7828.78
7832.41
7835.95
7839.39
7842.76
7846.04
7849.23
7852.39
7855.51
7858.61
7861.63
7864.59
7867.5
7870.33
7873.13
7875.9
7878.66
7881.38
7884.05
7886.67
7889.23
7891.77
7894.3
7896.81
7899.28
7901.69
7904.07
7906.41
7908.68
7910.96
7913.21
7915.45
7917.66
7919.82
7921.95
7924.04
7926.09
7928.12
7930.14
7932.16
7934.15
7936.1
7938.02
7939.91
7941.8
7943.68
7945.54
7947.37
7949.16
7950.96
7952.76
7954.54
7956.3
7958.03
7959.75
7961.43
7963.12
7964.8
7966.48
7968.13
7969.75
7971.35
7972.94
7974.5
7976.02
7977.54
7979.04
7980.52
7981.97
7983.38
7984.77
7986.1
7987.41
7988.68
7989.93
7991.12
7992.27
7993.37
7994.41
7995.4
7996.34
7997.22
7998.04
7998.8
7999.48
8000.1
8000.65
8001.12
8001.5
8001.81
8002.05
8002.21
8002.27
8002.24
8002.12
8001.92
8001.63
8001.24
8000.75
8000.18
7999.51
7998.75
7997.89
7996.94
7995.9
7994.77
7993.56
7992.25
7990.86
7989.39
7987.84
7986.21
7984.51
7982.73
7980.89
7978.98
7977.01
7974.99
7972.91
7970.78
7968.61
7966.39
7964.14
7961.85
7959.54
7957.2
7954.84
7952.46
7950.06
7947.66
7945.25
7942.84
7940.42
7938.01
7935.61
7933.22
7930.84
7928.48
7926.13
7923.8
7921.49
7919.2
7916.94
7914.71
7912.5
7910.33
7908.18
7906.07
7903.99
7901.95
7899.94
7897.96
7896.02
7894.12
7892.25
7890.42
7888.63
7886.88
7885.16
7883.48
7881.83
7880.23
7878.66
7877.13
7875.63
7874.17
7872.75
7871.36
7870
7868.68
7867.39
7866.13
7864.91
7863.71
7862.54
7861.41
7860.3
7859.23
7858.18
7857.16
7856.16
7855.2
7854.25
7853.34
7852.45
7851.58
7850.73
7849.91
7849.11
7848.34
7847.58
7846.85
7846.13
7845.44
7844.77
7844.11
7843.48
7842.85
7842.26
7841.67
7841.11
7840.56
7840.03
7839.52
7839.03
7838.55
7838.09
7837.66
7837.22
7836.82
7836.42
7836.04
7835.71
7835.38
7835.01
7834.7
7834.4
7834.11
7833.83
7833.57
7833.31
7833.07
7832.83
7832.61
7832.4
7832.19
7832
7831.81
7831.66
7831.49
7831.41
7831.25
7831.02
7830.86
7830.68
7830.53
7830.38
7830.23
7830.05
7829.91
7829.73
7829.59
7829.41
7829.26
7829.08
7828.93
7828.76
7828.6
7828.4
7828.25
7828
7827.72
7827.62
7827.45
7827.24
7827.02
7826.8
7826.58
7826.35
7826.1
7825.84
7825.57
7825.29
7824.99
7824.68
7824.34
7823.98
7823.61
7823.22
7822.81
7822.38
7821.94
7821.48
7821
7820.5
7819.99
7819.45
7818.9
7818.34
7817.75
7817.15
7816.54
7815.9
7815.26
7814.59
7813.92
7813.23
7812.53
7811.81
7811.09
7810.36
7809.61
7808.85
7808.09
7807.32
7806.55
7805.77
7804.98
7804.19
7803.39
7802.59
7801.79
7800.99
7800.18
7799.38
7798.57
7797.77
7796.97
7796.17
7795.37
7794.57
7793.78
7792.99
7792.21
7791.43
7790.65
7789.88
7789.11
7788.35
7787.6
7786.85
7786.11
7785.37
7784.64
7783.92
7783.21
7782.5
7781.8
7781.1
7780.41
7779.73
7779.06
7778.39
7777.73
7777.08
7776.43
7775.84
7775.04
7774.64
7869.28
7880.27
7887.27
7893.98
7900.52
7907
7913.28
7919.32
7925.04
7930.43
7935.3
7939.92
7944.94
7949.58
7953.62
7957.11
7960.43
7963.85
7967.63
7971.74
7975.9
7979.87
7983.56
7986.79
7989.28
7991.27
7992.88
7994.16
7995.5
7996.94
7998.38
7999.76
8001.04
8002.17
8003.01
8003.41
8003.27
8003.24
8003.19
8002.72
8001.84
8000.68
7999.08
7997.51
7996.14
7994.49
7992.45
7990.14
7987.49
7984.88
7982.22
7979.57
7976.51
7973.27
7969.85
7966.24
7962.37
7958.44
7954.69
7950.78
7946.62
7942.27
7937.59
7932.97
7928.43
7923.8
7919.41
7914.77
7909.93
7905.01
7899.99
7894.79
7889.6
7884.76
7879.69
7874.51
7869.23
7863.9
7858.52
7853
7847.42
7841.45
7835.08
7829.47
7823.61
7817.97
7811.78
7809.64
7803.12
7792.13
7785.61
7777.64
7771.25
7764.28
7757.28
7749.17
7742.11
7734.24
7727.21
7719.44
7712.09
7704.27
7697.08
7689.93
7682.7
7675.36
7668.12
7660.83
7653.8
7647.11
7640.35
7633.74
7627.34
7620.87
7614.53
7608.17
7602.09
7596.02
7590.26
7584.45
7578.93
7573.35
7568.21
7563.07
7558.42
7553.51
7548.99
7544.83
7540.79
7537.24
7533.84
7530.62
7527.59
7524.9
7522.36
7520.21
7518.36
7516.85
7515.6
7514.61
7513.84
7513.42
7513.44
7513.67
7514.11
7514.79
7515.89
7517.28
7519.07
7521
7523.1
7525.47
7528.17
7531.22
7534.46
7537.85
7541.38
7545.2
7549.25
7553.49
7557.99
7562.67
7567.46
7572.33
7577.37
7582.6
7587.97
7593.54
7599.16
7604.77
7610.55
7616.42
7622.39
7628.48
7634.54
7640.63
7646.7
7652.78
7658.95
7665.13
7671.4
7677.58
7683.71
7689.81
7695.83
7701.79
7707.76
7713.68
7719.6
7725.45
7731.18
7736.82
7742.33
7747.74
7753.11
7758.42
7763.65
7768.73
7773.7
7778.52
7783.25
7787.93
7792.52
7796.98
7801.3
7805.58
7809.73
7813.77
7817.69
7821.49
7825.26
7828.94
7832.6
7836.15
7839.6
7842.96
7846.23
7849.43
7852.61
7855.75
7858.86
7861.88
7864.84
7867.75
7870.62
7873.4
7876.15
7878.89
7881.6
7884.3
7886.93
7889.5
7892.01
7894.55
7897.07
7899.53
7901.94
7904.31
7906.59
7908.9
7911.18
7913.46
7915.7
7917.88
7920.03
7922.13
7924.17
7926.24
7928.28
7930.33
7932.34
7934.3
7936.21
7938.11
7940.05
7941.95
7943.82
7945.66
7947.46
7949.25
7951.05
7952.86
7954.64
7956.39
7958.13
7959.85
7961.54
7963.2
7964.89
7966.57
7968.22
7969.84
7971.43
7973.02
7974.6
7976.17
7977.69
7979.18
7980.64
7982.09
7983.54
7984.93
7986.28
7987.59
7988.88
7990.14
7991.35
7992.49
7993.59
7994.67
7995.69
7996.65
7997.54
7998.37
7999.12
7999.83
8000.48
8001.04
8001.53
8001.93
8002.25
8002.5
8002.67
8002.74
8002.72
8002.6
8002.42
8002.14
8001.76
8001.27
8000.7
8000.04
7999.28
7998.43
7997.47
7996.42
7995.29
7994.08
7992.76
7991.37
7989.88
7988.32
7986.68
7984.97
7983.18
7981.32
7979.4
7977.41
7975.37
7973.27
7971.13
7968.94
7966.7
7964.43
7962.13
7959.79
7957.43
7955.05
7952.65
7950.24
7947.82
7945.39
7942.96
7940.53
7938.1
7935.69
7933.28
7930.89
7928.5
7926.14
7923.8
7921.48
7919.18
7916.91
7914.66
7912.45
7910.26
7908.11
7905.99
7903.91
7901.85
7899.84
7897.86
7895.91
7894
7892.13
7890.3
7888.5
7886.74
7885.02
7883.34
7881.69
7880.08
7878.51
7876.98
7875.48
7874.02
7872.59
7871.2
7869.84
7868.52
7867.23
7865.97
7864.74
7863.54
7862.38
7861.25
7860.14
7859.07
7858.02
7857
7856
7855.04
7854.1
7853.18
7852.29
7851.42
7850.58
7849.76
7848.96
7848.18
7847.43
7846.7
7845.99
7845.3
7844.63
7843.97
7843.33
7842.72
7842.12
7841.55
7840.97
7840.43
7839.9
7839.4
7838.9
7838.43
7837.96
7837.52
7837.09
7836.72
7836.34
7835.92
7835.57
7835.23
7834.9
7834.6
7834.29
7834
7833.72
7833.47
7833.21
7832.98
7832.72
7832.53
7832.29
7832.13
7831.92
7831.83
7831.65
7831.43
7831.25
7831.08
7830.93
7830.78
7830.62
7830.46
7830.32
7830.16
7830.01
7829.85
7829.7
7829.55
7829.42
7829.26
7829.13
7828.95
7828.81
7828.59
7828.35
7828.27
7828.12
7827.93
7827.74
7827.55
7827.35
7827.14
7826.93
7826.71
7826.48
7826.24
7825.98
7825.71
7825.43
7825.12
7824.81
7824.47
7824.12
7823.75
7823.36
7822.95
7822.53
7822.08
7821.62
7821.14
7820.64
7820.12
7819.58
7819.03
7818.46
7817.87
7817.27
7816.65
7816.01
7815.36
7814.69
7814.01
7813.32
7812.62
7811.9
7811.17
7810.43
7809.68
7808.92
7808.15
7807.37
7806.59
7805.8
7805.01
7804.21
7803.41
7802.61
7801.8
7801
7800.19
7799.38
7798.57
7797.76
7796.95
7796.15
7795.35
7794.55
7793.75
7792.96
7792.17
7791.39
7790.61
7789.84
7789.07
7788.31
7787.56
7786.81
7786.06
7785.33
7784.6
7783.87
7783.16
7782.45
7781.74
7781.05
7780.36
7779.68
7779.01
7778.34
7777.68
7777.03
7776.37
7775.78
7774.99
7774.59
7870.74
7881.77
7888.81
7895.54
7902.1
7908.55
7914.78
7920.76
7926.47
7931.92
7936.7
7941.63
7946.84
7951.58
7955.83
7959.71
7963.44
7967.18
7970.98
7974.79
7978.56
7982.17
7985.49
7988.46
7991.03
7993.18
7994.92
7996.58
7998.24
7999.73
8001.04
8002.24
8003.3
8004.16
8004.65
8004.65
8004.81
8004.94
8004.95
8004.4
8003.54
8002.43
8000.97
7999.33
7997.93
7996.16
7994.1
7991.8
7989.14
7986.32
7983.82
7981.07
7977.97
7974.68
7971.22
7967.56
7963.76
7959.86
7955.94
7951.84
7947.61
7943.24
7938.56
7933.63
7929.02
7924.31
7919.74
7915.26
7910.36
7905.34
7900.25
7895.06
7889.79
7884.5
7879.26
7873.98
7868.61
7863.14
7857.55
7851.74
7845.75
7840
7834.24
7828.71
7822.81
7816.26
7809.89
7803.9
7798.06
7792.07
7788.12
7781.64
7770.45
7764.15
7756.32
7749.56
7742.04
7734.97
7726.68
7719.76
7711.85
7704.71
7696.91
7689.55
7681.93
7674.88
7668.04
7660.68
7653.86
7646.39
7639.45
7632.68
7626.14
7619.85
7613.25
7607.08
7600.86
7594.85
7588.81
7583.17
7577.46
7572.05
7566.57
7561.8
7556.92
7552.35
7547.49
7543.16
7538.73
7534.93
7531.95
7528.64
7525.94
7523.05
7520.54
7518.1
7516.16
7514.65
7513.38
7512.65
7511.97
7511.6
7511.5
7511.65
7512.01
7512.85
7513.97
7515.56
7517.29
7519.15
7521.25
7523.74
7526.49
7529.63
7532.89
7536.34
7539.94
7543.73
7547.82
7552.12
7556.71
7561.43
7566.24
7571.14
7576.24
7581.52
7586.94
7592.59
7598.28
7603.96
7609.72
7615.64
7621.66
7627.82
7633.94
7640.07
7646.15
7652.28
7658.49
7664.81
7671.08
7677.28
7683.44
7689.58
7695.65
7701.62
7707.6
7713.54
7719.44
7725.37
7731.13
7736.8
7742.37
7747.79
7753.11
7758.45
7763.69
7768.79
7773.78
7778.62
7783.33
7788
7792.57
7797.11
7801.5
7805.76
7809.91
7813.92
7817.81
7821.68
7825.47
7829.24
7832.89
7836.42
7839.87
7843.2
7846.47
7849.72
7852.96
7856.13
7859.2
7862.16
7865.11
7868.04
7870.97
7873.81
7876.59
7879.31
7881.93
7884.58
7887.2
7889.79
7892.38
7894.95
7897.44
7899.88
7902.28
7904.6
7906.9
7909.2
7911.5
7913.79
7916
7918.17
7920.25
7922.34
7924.42
7926.48
7928.56
7930.59
7932.57
7934.5
7936.38
7938.28
7940.19
7942.11
7943.98
7945.81
7947.58
7949.38
7951.18
7952.99
7954.77
7956.51
7958.24
7959.96
7961.66
7963.32
7965
7966.69
7968.34
7969.96
7971.55
7973.15
7974.75
7976.32
7977.86
7979.37
7980.82
7982.28
7983.71
7985.13
7986.53
7987.87
7989.17
7990.42
7991.61
7992.79
7993.92
7995.03
7996.07
7997.05
7997.96
7998.79
7999.58
8000.31
8000.98
8001.57
8002.07
8002.5
8002.83
8003.1
8003.29
8003.36
8003.35
8003.26
8003.09
8002.83
8002.45
8001.97
8001.4
8000.75
7999.99
7999.13
7998.17
7997.12
7995.99
7994.77
7993.45
7992.04
7990.53
7988.96
7987.3
7985.57
7983.77
7981.89
7979.94
7977.93
7975.86
7973.74
7971.58
7969.37
7967.11
7964.81
7962.48
7960.12
7957.74
7955.34
7952.92
7950.48
7948.04
7945.58
7943.12
7940.67
7938.22
7935.79
7933.36
7930.95
7928.54
7926.16
7923.8
7921.46
7919.15
7916.86
7914.61
7912.38
7910.18
7908.01
7905.88
7903.79
7901.73
7899.7
7897.71
7895.76
7893.85
7891.97
7890.13
7888.33
7886.57
7884.84
7883.15
7881.5
7879.89
7878.32
7876.78
7875.28
7873.81
7872.38
7870.99
7869.63
7868.3
7867.01
7865.75
7864.52
7863.32
7862.16
7861.03
7859.92
7858.85
7857.8
7856.78
7855.79
7854.82
7853.88
7852.96
7852.07
7851.21
7850.37
7849.55
7848.76
7847.98
7847.23
7846.5
7845.79
7845.1
7844.44
7843.78
7843.15
7842.52
7841.94
7841.35
7840.8
7840.26
7839.73
7839.22
7838.72
7838.25
7837.82
7837.4
7836.94
7836.54
7836.15
7835.79
7835.43
7835.1
7834.76
7834.46
7834.16
7833.88
7833.61
7833.35
7833.09
7832.87
7832.64
7832.48
7832.29
7832.01
7831.84
7831.62
7831.48
7831.28
7831.15
7830.98
7830.83
7830.68
7830.53
7830.38
7830.24
7830.1
7829.96
7829.83
7829.69
7829.56
7829.42
7829.28
7829.1
7828.9
7828.84
7828.71
7828.55
7828.38
7828.22
7828.05
7827.87
7827.69
7827.5
7827.3
7827.09
7826.87
7826.65
7826.41
7826.15
7825.88
7825.6
7825.29
7824.98
7824.64
7824.29
7823.92
7823.54
7823.13
7822.7
7822.26
7821.8
7821.31
7820.81
7820.29
7819.76
7819.2
7818.63
7818.03
7817.43
7816.8
7816.16
7815.5
7814.83
7814.14
7813.44
7812.73
7812.01
7811.27
7810.52
7809.77
7809
7808.22
7807.44
7806.65
7805.86
7805.06
7804.25
7803.45
7802.64
7801.82
7801.01
7800.19
7799.38
7798.56
7797.75
7796.94
7796.13
7795.32
7794.52
7793.72
7792.92
7792.13
7791.35
7790.57
7789.79
7789.02
7788.26
7787.5
7786.75
7786
7785.26
7784.53
7783.81
7783.09
7782.38
7781.68
7780.98
7780.29
7779.61
7778.94
7778.27
7777.61
7776.96
7776.3
7775.71
7774.92
7774.52
7872.63
7883.74
7890.8
7897.54
7904.12
7910.57
7916.82
7922.82
7928.59
7934.1
7938.86
7944.02
7949.33
7954.18
7958.62
7962.79
7966.76
7970.62
7974.38
7978.07
7981.64
7985.02
7988.18
7991.04
7993.57
7995.59
7997.57
7999.4
8001.23
8002.76
8004.02
8005.11
8005.97
8006.37
8006.55
8006.9
8007.15
8007.5
8007.25
8006.61
8005.74
8004.63
8003.3
8001.77
8000.12
7998.24
7996.14
7993.83
7991.27
7988.46
7985.8
7982.89
7979.74
7976.4
7972.89
7969.17
7965.36
7961.43
7957.36
7953.17
7948.86
7944.44
7939.82
7934.78
7929.81
7925.02
7920.43
7915.94
7910.92
7905.79
7900.58
7895.3
7889.95
7884.49
7878.8
7873.13
7867.91
7862.37
7856.64
7850.81
7844.72
7838.63
7833.07
7827.18
7821.06
7814.9
7808.73
7802.5
7795.87
7789.28
7783.06
7777.12
7771.37
7767.04
7760.27
7748.48
7741.66
7733.64
7726.66
7719.29
7712.02
7703.66
7696.41
7688.57
7681.6
7674.21
7666.92
7659.44
7652.36
7645.63
7638.77
7631.82
7624.64
7617.88
7611.26
7605.04
7599.27
7593.05
7587.27
7581.29
7575.67
7570
7564.81
7559.73
7554.98
7550.16
7545.69
7541.2
7537.17
7533.01
7529.7
7525.94
7522.81
7520.55
7517.97
7515.87
7513.96
7512.28
7510.87
7510.03
7509.45
7509.09
7509.11
7509.2
7509.55
7510.38
7511.68
7513.29
7515.04
7516.96
7519.06
7521.55
7524.44
7527.62
7530.91
7534.4
7538.11
7541.93
7546.02
7550.43
7555.1
7559.83
7564.73
7569.73
7574.83
7580.16
7585.74
7591.42
7597.13
7602.93
7608.73
7614.66
7620.87
7627.01
7633.18
7639.35
7645.46
7651.65
7658.02
7664.4
7670.66
7676.89
7683.08
7689.25
7695.4
7701.5
7707.44
7713.38
7719.29
7725.19
7731.06
7736.77
7742.37
7747.88
7753.27
7758.53
7763.66
7768.74
7773.79
7778.71
7783.47
7788.17
7792.83
7797.33
7801.71
7805.98
7810.08
7814.08
7818.07
7821.96
7825.86
7829.61
7833.24
7836.79
7840.23
7843.53
7846.85
7850.13
7853.41
7856.56
7859.63
7862.58
7865.55
7868.48
7871.42
7874.27
7877.05
7879.8
7882.47
7885.04
7887.65
7890.23
7892.82
7895.4
7897.89
7900.33
7902.72
7905.06
7907.3
7909.62
7911.94
7914.19
7916.38
7918.47
7920.56
7922.66
7924.76
7926.86
7928.89
7930.88
7932.84
7934.72
7936.61
7938.51
7940.43
7942.33
7944.18
7945.99
7947.75
7949.54
7951.37
7953.16
7954.92
7956.66
7958.36
7960.06
7961.79
7963.5
7965.18
7966.84
7968.48
7970.08
7971.7
7973.32
7974.93
7976.51
7978.05
7979.58
7981.06
7982.51
7983.96
7985.41
7986.82
7988.19
7989.51
7990.77
7991.98
7993.19
7994.37
7995.49
7996.55
7997.54
7998.46
7999.32
8000.17
8000.93
8001.62
8002.23
8002.76
8003.2
8003.56
8003.86
8004.06
8004.17
8004.17
8004.1
8003.94
8003.69
8003.32
8002.84
8002.29
8001.64
8000.88
8000.03
7999.06
7998
7996.87
7995.63
7994.3
7992.88
7991.36
7989.76
7988.09
7986.33
7984.5
7982.6
7980.63
7978.6
7976.49
7974.34
7972.15
7969.91
7967.62
7965.29
7962.92
7960.54
7958.13
7955.7
7953.24
7950.78
7948.3
7945.81
7943.33
7940.85
7938.38
7935.92
7933.46
7931.02
7928.59
7926.19
7923.8
7921.43
7919.1
7916.8
7914.53
7912.28
7910.07
7907.88
7905.74
7903.63
7901.56
7899.53
7897.53
7895.57
7893.64
7891.76
7889.91
7888.11
7886.34
7884.61
7882.91
7881.25
7879.64
7878.06
7876.52
7875.01
7873.54
7872.11
7870.71
7869.35
7868.02
7866.73
7865.47
7864.24
7863.04
7861.88
7860.75
7859.65
7858.57
7857.52
7856.5
7855.52
7854.55
7853.6
7852.69
7851.81
7850.95
7850.11
7849.29
7848.5
7847.72
7846.98
7846.26
7845.55
7844.86
7844.19
7843.54
7842.91
7842.3
7841.7
7841.14
7840.57
7840.03
7839.49
7839.02
7838.53
7838.03
7837.59
7837.16
7836.75
7836.35
7835.97
7835.59
7835.24
7834.9
7834.59
7834.28
7833.98
7833.7
7833.43
7833.18
7832.98
7832.77
7832.47
7832.28
7832.04
7831.88
7831.67
7831.53
7831.34
7831.18
7831.02
7830.87
7830.72
7830.58
7830.43
7830.3
7830.18
7830.05
7829.91
7829.79
7829.61
7829.46
7829.43
7829.33
7829.21
7829.06
7828.93
7828.79
7828.65
7828.5
7828.35
7828.19
7828.02
7827.85
7827.67
7827.48
7827.28
7827.07
7826.84
7826.61
7826.35
7826.09
7825.81
7825.51
7825.19
7824.87
7824.52
7824.15
7823.76
7823.36
7822.93
7822.48
7822.02
7821.54
7821.04
7820.51
7819.97
7819.41
7818.83
7818.24
7817.63
7816.99
7816.35
7815.68
7815
7814.31
7813.6
7812.88
7812.15
7811.4
7810.64
7809.88
7809.1
7808.32
7807.53
7806.73
7805.92
7805.11
7804.3
7803.48
7802.66
7801.84
7801.02
7800.2
7799.38
7798.55
7797.73
7796.92
7796.1
7795.29
7794.48
7793.67
7792.87
7792.08
7791.29
7790.5
7789.72
7788.95
7788.19
7787.42
7786.67
7785.92
7785.18
7784.45
7783.72
7783.01
7782.29
7781.59
7780.89
7780.2
7779.52
7778.85
7778.18
7777.52
7776.87
7776.21
7775.62
7774.83
7774.43
7874.96
7886.15
7893.22
7900.01
7906.64
7913.11
7919.4
7925.47
7931.34
7936.97
7942.08
7947.17
7952.45
7957.39
7961.96
7966.27
7970.39
7974.33
7978.11
7981.74
7985.2
7988.47
7991.52
7994.33
7996.85
7998.95
8000.81
8002.86
8004.7
8006.17
8007.42
8008.42
8008.84
8009.04
8009.51
8009.95
8010.52
8010.5
8010.05
8009.36
8008.45
8007.33
8005.99
8004.44
8002.69
8000.75
7998.6
7996.25
7993.71
7990.95
7987.94
7984.9
7981.75
7978.42
7974.84
7971.07
7967.19
7963.19
7959.05
7954.78
7950.39
7945.88
7941.26
7936.42
7931.16
7925.9
7921.34
7916.74
7911.61
7906.36
7901.02
7895.59
7890.08
7884.38
7878.44
7872.72
7867.14
7861.72
7855.88
7849.92
7843.9
7837.84
7831.77
7825.63
7819.34
7812.8
7806.45
7800.34
7794.34
7788.03
7781.67
7774.96
7767.98
7761.5
7755.12
7749.08
7744.37
7737.28
7725.21
7718.65
7710.75
7703.68
7695.78
7688.1
7680.52
7673.6
7666.09
7659.03
7651.68
7644.69
7637.2
7630.22
7623.85
7617.37
7610.67
7603.51
7596.95
7590.53
7584.61
7579.27
7573.27
7567.97
7562.66
7557.6
7552.54
7548.06
7543.39
7539.23
7534.74
7530.79
7527.07
7523.93
7520.93
7517.8
7515.23
7512.21
7510.03
7509.01
7507.71
7507.21
7506.43
7505.98
7505.87
7506.13
7506.51
7507.46
7508.92
7510.46
7512.22
7514.28
7516.48
7518.98
7522
7525.16
7528.49
7532.06
7535.84
7539.8
7543.98
7548.5
7553.13
7557.92
7562.89
7568.01
7573.24
7578.66
7584.28
7589.96
7595.75
7601.61
7607.54
7613.66
7619.84
7626.02
7632.24
7638.43
7644.61
7650.97
7657.48
7663.82
7670.14
7676.4
7682.55
7688.69
7695.01
7701.27
7707.38
7713.35
7719.17
7725.01
7730.83
7736.71
7742.37
7747.91
7753.35
7758.63
7763.72
7768.83
7773.85
7778.77
7783.66
7788.5
7793.11
7797.61
7802
7806.23
7810.31
7814.41
7818.43
7822.44
7826.29
7830.03
7833.68
7837.25
7840.74
7844.1
7847.35
7850.62
7853.86
7857.09
7860.19
7863.19
7866.15
7869.12
7871.99
7874.79
7877.55
7880.33
7883.06
7885.72
7888.26
7890.79
7893.35
7895.93
7898.43
7900.87
7903.25
7905.54
7907.78
7910.14
7912.44
7914.66
7916.84
7918.94
7920.97
7923.06
7925.18
7927.25
7929.25
7931.22
7933.16
7935.01
7936.89
7938.79
7940.72
7942.59
7944.42
7946.23
7947.96
7949.75
7951.57
7953.35
7955.1
7956.81
7958.48
7960.2
7961.95
7963.66
7965.34
7967.01
7968.64
7970.24
7971.87
7973.52
7975.14
7976.72
7978.28
7979.82
7981.33
7982.78
7984.27
7985.74
7987.17
7988.55
7989.9
7991.21
7992.42
7993.67
7994.88
7996.03
7997.12
7998.14
7999.09
7999.98
8000.86
8001.66
8002.38
8003.01
8003.57
8004.05
8004.46
8004.77
8005
8005.11
8005.16
8005.12
8004.97
8004.72
8004.37
8003.92
8003.36
8002.71
8001.95
8001.09
8000.14
7999.08
7997.93
7996.68
7995.33
7993.88
7992.35
7990.74
7989.04
7987.25
7985.39
7983.46
7981.46
7979.39
7977.27
7975.08
7972.84
7970.56
7968.23
7965.87
7963.47
7961.04
7958.59
7956.12
7953.63
7951.12
7948.61
7946.1
7943.58
7941.06
7938.56
7936.06
7933.58
7931.1
7928.65
7926.21
7923.8
7921.41
7919.05
7916.72
7914.43
7912.16
7909.93
7907.73
7905.57
7903.45
7901.36
7899.31
7897.29
7895.33
7893.4
7891.5
7889.65
7887.83
7886.06
7884.32
7882.62
7880.96
7879.34
7877.75
7876.21
7874.7
7873.22
7871.78
7870.38
7869.02
7867.69
7866.39
7865.13
7863.9
7862.71
7861.55
7860.42
7859.31
7858.23
7857.18
7856.17
7855.18
7854.21
7853.27
7852.37
7851.48
7850.62