/*--------------------------------*- C++ -*----------------------------------*\
| =========                 |                                                 |
| \\      /  F ield         | OpenFOAM: The Open Source CFD Toolbox           |
|  \\    /   O peration     | Version:  v2006                                 |
|   \\  /    A nd           | Website:  www.openfoam.com                      |
|    \\/     M anipulation  |                                                 |
\*---------------------------------------------------------------------------*/
FoamFile
{
    version     2.0;
    format      ascii;
    class       surfaceScalarField;
    location    "8.9";
    object      phi;
}
// * * * * * * * * * * * * * * * * * * * * * * * * * * * * * * * * * * * * * //

dimensions      [0 3 -1 0 0 0 0];
oriented        oriented;


internalField   nonuniform List<scalar> 
65390
(
1.45908e-05
-1.9982e-07
1.33945e-05
1.19661e-06
9.94046e-06
3.45435e-06
6.47174e-06
3.46895e-06
5.36053e-06
1.11137e-06
8.34905e-06
-2.98842e-06
1.43238e-05
-5.97469e-06
2.16403e-05
-7.31654e-06
2.94602e-05
-7.81989e-06
3.7246e-05
-7.78588e-06
4.38996e-05
-6.65375e-06
4.92146e-05
-5.31511e-06
5.35801e-05
-4.36555e-06
5.76961e-05
-4.1162e-06
6.19899e-05
-4.29398e-06
6.63319e-05
-4.34211e-06
6.97985e-05
-3.46685e-06
7.18456e-05
-2.04722e-06
7.26383e-05
-7.92884e-07
7.11283e-05
1.50979e-06
6.66959e-05
4.43224e-06
6.07878e-05
5.90789e-06
5.58725e-05
4.91514e-06
5.33283e-05
2.54407e-06
5.31201e-05
2.08046e-07
5.43427e-05
-1.22281e-06
5.61614e-05
-1.81882e-06
5.7914e-05
-1.75271e-06
5.88198e-05
-9.05951e-07
5.8507e-05
3.12655e-07
5.73303e-05
1.17656e-06
5.43457e-05
2.98451e-06
4.93216e-05
5.02404e-06
4.36328e-05
5.68861e-06
3.76062e-05
6.02656e-06
3.2773e-05
4.83307e-06
2.92675e-05
3.50545e-06
2.55779e-05
3.68942e-06
2.27556e-05
2.82228e-06
2.13135e-05
1.44192e-06
2.03228e-05
9.9068e-07
1.89258e-05
1.39691e-06
1.67908e-05
2.13487e-06
1.43338e-05
2.45698e-06
1.27767e-05
1.55701e-06
1.21501e-05
6.2645e-07
1.15586e-05
5.91519e-07
1.05325e-05
1.02599e-06
8.85549e-06
1.67695e-06
6.93973e-06
1.91571e-06
5.73281e-06
1.20688e-06
5.30121e-06
4.31565e-07
5.16632e-06
1.34869e-07
5.1622e-06
4.10226e-09
5.26695e-06
-1.0476e-07
5.30786e-06
-4.09165e-08
5.1495e-06
1.58373e-07
4.53228e-06
6.17239e-07
3.2722e-06
1.2601e-06
1.47259e-06
1.79964e-06
-4.2313e-07
1.89575e-06
-2.21507e-06
1.79197e-06
-3.76374e-06
1.5487e-06
-5.06648e-06
1.30278e-06
-6.11122e-06
1.04478e-06
-6.75044e-06
6.39265e-07
-6.79232e-06
4.19188e-08
-6.21619e-06
-5.76088e-07
-5.23384e-06
-9.82304e-07
-4.05221e-06
-1.1816e-06
-2.73603e-06
-1.31615e-06
-1.30818e-06
-1.42783e-06
2.68616e-07
-1.57677e-06
2.01511e-06
-1.74647e-06
3.8908e-06
-1.87567e-06
5.39026e-06
-1.49946e-06
5.96158e-06
-5.71317e-07
3.77695e-06
2.18462e-06
2.14658e-06
1.63035e-06
2.09243e-06
5.41342e-08
6.38261e-07
1.45415e-06
-3.31392e-07
9.69625e-07
-1.61929e-06
1.28788e-06
-2.44873e-06
8.29409e-07
-3.42691e-06
9.78147e-07
-4.1484e-06
7.21457e-07
-4.66754e-06
5.19114e-07
-5.12605e-06
4.58479e-07
-5.41106e-06
2.84984e-07
-5.58287e-06
1.71783e-07
-5.64976e-06
6.68713e-08
-5.61559e-06
-3.41862e-08
-5.28428e-06
-3.31322e-07
-4.65243e-06
-6.31877e-07
-3.42595e-06
-1.22649e-06
-1.61503e-06
-1.81095e-06
7.04056e-07
-2.3191e-06
3.12423e-06
-2.4202e-06
5.36626e-06
-2.24205e-06
6.39406e-06
-1.02782e-06
6.36399e-06
3.00442e-08
5.90714e-06
4.56827e-07
5.07131e-06
8.35818e-07
4.3772e-06
6.94093e-07
3.49654e-06
8.80643e-07
2.89578e-06
6.0075e-07
2.57175e-06
3.24028e-07
2.23113e-06
3.40627e-07
1.79677e-06
4.34371e-07
1.33002e-06
4.66765e-07
8.6391e-07
4.66126e-07
4.05358e-07
4.58568e-07
9.70773e-08
3.08295e-07
-2.19929e-08
1.19083e-07
1.2571e-07
-1.47694e-07
4.38178e-07
-3.12463e-07
9.05238e-07
-4.67056e-07
1.01495e-06
-1.09711e-07
6.82457e-07
3.32493e-07
2.39881e-07
4.42574e-07
-2.78985e-07
5.18866e-07
-7.54991e-07
4.76008e-07
-1.37041e-06
6.15422e-07
-1.90756e-06
5.3715e-07
-2.33728e-06
4.29728e-07
-2.76495e-06
4.27681e-07
-3.16624e-06
4.01295e-07
-3.57015e-06
4.03913e-07
-3.99723e-06
4.27077e-07
-4.41116e-06
4.13922e-07
-4.80654e-06
3.9537e-07
-5.18529e-06
3.78738e-07
-5.53135e-06
3.46041e-07
-5.87779e-06
3.46412e-07
-6.22541e-06
3.47593e-07
-6.57287e-06
3.47424e-07
-6.91019e-06
3.3729e-07
-7.23228e-06
3.22058e-07
-7.54651e-06
3.1421e-07
-7.85603e-06
3.09493e-07
-8.16364e-06
3.07581e-07
-8.46056e-06
2.96899e-07
-8.74382e-06
2.83238e-07
-9.00826e-06
2.64418e-07
-9.25844e-06
2.50168e-07
-9.50153e-06
2.43073e-07
-9.74096e-06
2.39417e-07
-9.97628e-06
2.35308e-07
-1.01979e-05
2.21603e-07
-1.03955e-05
1.97588e-07
-1.0581e-05
1.85445e-07
-1.07611e-05
1.80098e-07
-1.09357e-05
1.74661e-07
-1.11008e-05
1.65069e-07
-1.12532e-05
1.52396e-07
-1.13937e-05
1.40431e-07
-1.15226e-05
1.28974e-07
-1.16434e-05
1.20777e-07
-1.17561e-05
1.12654e-07
-1.18596e-05
1.03508e-07
-1.19522e-05
9.25955e-08
-1.20339e-05
8.16021e-08
-1.21046e-05
7.07095e-08
-1.21662e-05
6.16024e-08
-1.22229e-05
5.66367e-08
-1.22731e-05
5.01525e-08
-1.23094e-05
3.63234e-08
-1.23315e-05
2.20558e-08
-1.23446e-05
1.31035e-08
-1.23542e-05
9.55843e-09
-1.23594e-05
5.16447e-09
-1.23531e-05
-6.39596e-09
-1.233e-05
-2.30775e-08
-1.22946e-05
-3.53917e-08
-1.22498e-05
-4.48239e-08
-1.21988e-05
-5.10229e-08
-1.21466e-05
-5.22684e-08
-1.20899e-05
-5.67118e-08
-1.20226e-05
-6.73427e-08
-1.19433e-05
-7.92673e-08
-1.18499e-05
-9.35162e-08
-1.17427e-05
-1.0719e-07
-1.16267e-05
-1.15991e-07
-1.15037e-05
-1.23018e-07
-1.13757e-05
-1.28076e-07
-1.12454e-05
-1.3033e-07
-1.11064e-05
-1.38997e-07
-1.09511e-05
-1.55352e-07
-1.07807e-05
-1.70371e-07
-1.06002e-05
-1.80509e-07
-1.04147e-05
-1.8559e-07
-1.02235e-05
-1.91264e-07
-1.00227e-05
-2.00797e-07
-9.80807e-06
-2.14667e-07
-9.57527e-06
-2.32836e-07
-9.32494e-06
-2.50374e-07
-9.06014e-06
-2.64831e-07
-8.78918e-06
-2.70996e-07
-8.52041e-06
-2.68796e-07
-8.24808e-06
-2.72354e-07
-7.9642e-06
-2.83906e-07
-7.66021e-06
-3.04006e-07
-7.34046e-06
-3.19777e-07
-7.0166e-06
-3.23892e-07
-6.69606e-06
-3.20567e-07
-6.38004e-06
-3.16059e-07
-6.06315e-06
-3.16923e-07
-5.73742e-06
-3.25771e-07
-5.40725e-06
-3.30202e-07
-5.08699e-06
-3.20298e-07
-4.78938e-06
-2.97648e-07
-4.4977e-06
-2.91714e-07
-4.19359e-06
-3.04157e-07
-3.88687e-06
-3.06771e-07
-3.58644e-06
-3.0047e-07
-3.2947e-06
-2.91788e-07
-3.02163e-06
-2.73102e-07
-2.77363e-06
-2.4802e-07
-2.53519e-06
-2.38464e-07
-2.29594e-06
-2.39251e-07
-2.05365e-06
-2.42289e-07
-1.81738e-06
-2.36269e-07
-1.59025e-06
-2.2711e-07
-1.3786e-06
-2.11635e-07
-1.18993e-06
-1.88638e-07
-1.01402e-06
-1.75888e-07
-8.4341e-07
-1.70573e-07
-6.74315e-07
-1.69059e-07
-5.08056e-07
-1.66222e-07
-3.48871e-07
-1.59147e-07
-2.01491e-07
-1.47345e-07
-7.44422e-08
-1.27015e-07
4.12149e-08
-1.15625e-07
1.53161e-07
-1.11915e-07
2.63122e-07
-1.0993e-07
3.70818e-07
-1.07666e-07
4.72353e-07
-1.01503e-07
5.65316e-07
-9.29321e-08
6.50468e-07
-8.51203e-08
7.29149e-07
-7.86518e-08
8.00243e-07
-7.10646e-08
8.62527e-07
-6.22573e-08
9.19329e-07
-5.6777e-08
9.75576e-07
-5.62248e-08
1.03367e-06
-5.80721e-08
1.09018e-06
-5.64941e-08
1.14373e-06
-5.35313e-08
1.18958e-06
-4.58354e-08
1.22387e-06
-3.42739e-08
1.25983e-06
-3.59405e-08
1.30218e-06
-4.23352e-08
1.34538e-06
-4.31834e-08
1.38732e-06
-4.19198e-08
1.42714e-06
-3.98088e-08
1.46169e-06
-3.45297e-08
1.49522e-06
-3.35218e-08
1.53179e-06
-3.6561e-08
1.57142e-06
-3.96213e-08
1.61319e-06
-4.17594e-08
1.65475e-06
-4.15623e-08
1.69667e-06
-4.19128e-08
1.73944e-06
-4.27831e-08
1.78451e-06
-4.50698e-08
1.83375e-06
-4.92554e-08
1.88679e-06
-5.30508e-08
1.94105e-06
-5.42774e-08
1.9928e-06
-5.17671e-08
2.04364e-06
-5.08481e-08
2.09934e-06
-5.57176e-08
2.16163e-06
-6.22921e-08
2.22746e-06
-6.58328e-08
2.29546e-06
-6.8e-08
2.36599e-06
-7.05213e-08
2.43813e-06
-7.21315e-08
2.50898e-06
-7.08325e-08
2.58089e-06
-7.18875e-08
2.65706e-06
-7.61508e-08
2.73778e-06
-8.07035e-08
2.82175e-06
-8.39565e-08
2.90815e-06
-8.63918e-08
2.99727e-06
-8.91152e-08
3.08878e-06
-9.1506e-08
3.18008e-06
-9.12939e-08
3.27074e-06
-9.06572e-08
3.36492e-06
-9.41748e-08
3.46329e-06
-9.83563e-08
3.56369e-06
-1.00391e-07
3.6654e-06
-1.01696e-07
3.76884e-06
-1.03427e-07
3.87342e-06
-1.04575e-07
3.97759e-06
-1.04152e-07
4.0823e-06
-1.04695e-07
4.18872e-06
-1.06401e-07
4.29683e-06
-1.08095e-07
4.40584e-06
-1.08994e-07
4.51548e-06
-1.09634e-07
4.62498e-06
-1.09488e-07
4.73337e-06
-1.08381e-07
4.84135e-06
-1.07984e-07
4.9491e-06
-1.07752e-07
5.05671e-06
-1.07625e-07
5.16412e-06
-1.07416e-07
5.27026e-06
-1.06156e-07
5.37421e-06
-1.03972e-07
5.47632e-06
-1.02143e-07
5.57714e-06
-1.00847e-07
5.67657e-06
-9.94745e-08
5.77373e-06
-9.71926e-08
5.86814e-06
-9.44521e-08
5.9598e-06
-9.16954e-08
6.04906e-06
-8.9284e-08
6.13566e-06
-8.66114e-08
6.21887e-06
-8.32141e-08
6.29813e-06
-7.92629e-08
6.37343e-06
-7.53027e-08
6.44514e-06
-7.17192e-08
6.51319e-06
-6.80612e-08
6.57722e-06
-6.40395e-08
6.63692e-06
-5.97069e-08
6.69206e-06
-5.5149e-08
6.7425e-06
-5.04333e-08
6.78818e-06
-4.56817e-08
6.82905e-06
-4.08712e-08
6.86484e-06
-3.58029e-08
6.8954e-06
-3.05716e-08
6.92083e-06
-2.54554e-08
6.94112e-06
-2.03096e-08
6.95594e-06
-1.48413e-08
6.9651e-06
-9.18089e-09
6.9688e-06
-3.71752e-09
6.96733e-06
1.45284e-09
6.96071e-06
6.5942e-09
6.94877e-06
1.19225e-08
6.93108e-06
1.76664e-08
6.90752e-06
2.35419e-08
6.87861e-06
2.88915e-08
6.84499e-06
3.36035e-08
6.80659e-06
3.83819e-08
6.76334e-06
4.32516e-08
6.71526e-06
4.80759e-08
6.66246e-06
5.28065e-08
6.60509e-06
5.73726e-08
6.54338e-06
6.17291e-08
6.47747e-06
6.59262e-08
6.40752e-06
6.99759e-08
6.33379e-06
7.3758e-08
6.25642e-06
7.73813e-08
6.17561e-06
8.08266e-08
6.09148e-06
8.41253e-08
6.00414e-06
8.73266e-08
5.91369e-06
9.04386e-08
5.82033e-06
9.3354e-08
5.72438e-06
9.5961e-08
5.62611e-06
9.82945e-08
5.52561e-06
1.00529e-07
5.42296e-06
1.02694e-07
5.31826e-06
1.0475e-07
5.21157e-06
1.0673e-07
5.10323e-06
1.08361e-07
4.99346e-06
1.09781e-07
4.88237e-06
1.11098e-07
4.77008e-06
1.12294e-07
4.65675e-06
1.13327e-07
4.54234e-06
1.14409e-07
4.42674e-06
1.15609e-07
4.31015e-06
1.16592e-07
4.19305e-06
1.17102e-07
4.07593e-06
1.17116e-07
3.9588e-06
1.17114e-07
3.84121e-06
1.17588e-07
3.72297e-06
1.18225e-07
3.60484e-06
1.18122e-07
3.4873e-06
1.17526e-07
3.37034e-06
1.16957e-07
3.2537e-06
1.16622e-07
3.13733e-06
1.16356e-07
3.02133e-06
1.15974e-07
2.90575e-06
1.15562e-07
2.79036e-06
1.15366e-07
2.67547e-06
1.1487e-07
2.56186e-06
1.13604e-07
2.44987e-06
1.11978e-07
2.33881e-06
1.11064e-07
2.22851e-06
1.10299e-07
2.11912e-06
1.09407e-07
2.01071e-06
1.08413e-07
1.90348e-06
1.07234e-07
1.7977e-06
1.05779e-07
1.69341e-06
1.04287e-07
1.59019e-06
1.03203e-07
1.48811e-06
1.02068e-07
1.38753e-06
1.00562e-07
1.28896e-06
9.85617e-08
1.19206e-06
9.68949e-08
1.0968e-06
9.52554e-08
1.00319e-06
9.36149e-08
9.11213e-07
9.19814e-08
8.20405e-07
9.08169e-08
7.31155e-07
8.92604e-08
6.43811e-07
8.73525e-08
5.58467e-07
8.53495e-08
4.75271e-07
8.31985e-08
3.93819e-07
8.14502e-08
3.13949e-07
7.98662e-08
2.34272e-07
7.96708e-08
1.56023e-07
7.82423e-08
7.92631e-08
7.67544e-08
5.6977e-09
7.35616e-08
-6.75036e-08
7.32007e-08
-1.39104e-07
7.16033e-08
-2.09472e-07
7.0375e-08
-2.7775e-07
6.82894e-08
-3.4266e-07
6.49239e-08
-4.07355e-07
6.47104e-08
-4.68442e-07
6.11045e-08
-5.27808e-07
5.9383e-08
-5.84734e-07
5.69411e-08
-6.34534e-07
4.98135e-08
-6.8454e-07
5.0018e-08
-7.4151e-07
5.69784e-08
-7.89645e-07
4.81405e-08
-8.40385e-07
5.07429e-08
-8.8809e-07
4.7705e-08
-8.91304e-07
3.2125e-09
-9.05412e-07
1.41044e-08
-9.68901e-07
6.34836e-08
-9.89315e-07
2.04074e-08
-1.08867e-06
9.93423e-08
-1.28204e-06
1.93368e-07
-1.58224e-06
3.00187e-07
-1.84729e-06
2.65044e-07
-1.99138e-06
1.44085e-07
-2.12418e-06
1.32793e-07
-2.21276e-06
8.85725e-08
-2.29187e-06
7.91023e-08
-2.35838e-06
6.65085e-08
-2.42102e-06
6.26262e-08
-2.47657e-06
5.55468e-08
-2.52262e-06
4.60459e-08
-2.55695e-06
3.43281e-08
-2.59088e-06
3.3926e-08
-2.58991e-06
-9.78834e-10
-2.60939e-06
1.94853e-08
-2.67058e-06
6.11886e-08
-2.67151e-06
9.26498e-10
-2.70122e-06
2.97075e-08
-2.7604e-06
5.91868e-08
-2.84348e-06
8.30813e-08
-2.82283e-06
-2.06539e-08
-2.70261e-06
-1.20227e-07
-2.63899e-06
-6.3614e-08
-2.58828e-06
-5.07152e-08
-2.55921e-06
-2.90646e-08
-2.54141e-06
-1.77946e-08
-2.53074e-06
-1.066e-08
-2.52641e-06
-4.32679e-09
-2.52174e-06
-4.66528e-09
-2.50647e-06
-1.52649e-08
-2.50899e-06
2.52911e-09
-2.49385e-06
-1.51371e-08
-2.48584e-06
-8.00638e-09
-2.49876e-06
1.2923e-08
-2.41255e-06
-8.62061e-08
-2.33468e-06
-7.78725e-08
-2.43352e-06
9.88395e-08
-2.40547e-06
-2.80515e-08
-2.60248e-06
1.97009e-07
-2.93984e-06
3.37355e-07
-3.88876e-06
9.48923e-07
-4.72388e-06
8.35108e-07
-4.9085e-06
1.84613e-07
-4.91987e-06
1.13579e-08
-4.79121e-06
-1.28666e-07
-4.65695e-06
-1.3427e-07
-4.5625e-06
-9.44641e-08
-4.52744e-06
-3.50715e-08
-4.52323e-06
-4.22646e-09
-4.53443e-06
1.1193e-08
-4.55101e-06
1.65698e-08
-4.5854e-06
3.43862e-08
-4.6352e-06
4.97919e-08
-4.68903e-06
5.38227e-08
-4.746e-06
5.69704e-08
-4.80066e-06
5.46676e-08
-4.85712e-06
5.64601e-08
-4.92366e-06
6.65354e-08
-4.99753e-06
7.38613e-08
-5.06992e-06
7.23856e-08
-5.14304e-06
7.31193e-08
-5.22014e-06
7.70912e-08
-5.30101e-06
8.08627e-08
-5.3796e-06
7.8588e-08
-5.45522e-06
7.56161e-08
-5.53475e-06
7.95178e-08
-5.62308e-06
8.83292e-08
-5.71535e-06
9.22577e-08
-5.80883e-06
9.34776e-08
-5.90033e-06
9.14876e-08
-5.99158e-06
9.12497e-08
-6.08355e-06
9.19639e-08
-6.1743e-06
9.07419e-08
-6.26671e-06
9.24102e-08
-6.36413e-06
9.7423e-08
-6.46644e-06
1.02306e-07
-6.56876e-06
1.02321e-07
-6.66605e-06
9.72866e-08
-6.75713e-06
9.10931e-08
-6.84343e-06
8.63066e-08
-6.92904e-06
8.56192e-08
-7.01481e-06
8.57802e-08
-7.10297e-06
8.81702e-08
-7.19029e-06
8.733e-08
-7.27557e-06
8.52839e-08
-7.36119e-06
8.5624e-08
-7.44575e-06
8.45658e-08
-7.52694e-06
8.11959e-08
-7.60526e-06
7.833e-08
-7.68336e-06
7.81039e-08
-7.76309e-06
7.97246e-08
-7.84504e-06
8.19513e-08
-7.92855e-06
8.35124e-08
-8.01181e-06
8.32549e-08
-8.09325e-06
8.14244e-08
-8.17204e-06
7.87798e-08
-8.24798e-06
7.59295e-08
-8.32165e-06
7.36623e-08
-8.39365e-06
7.19879e-08
-8.46443e-06
7.07746e-08
-8.53421e-06
6.97718e-08
-8.60291e-06
6.86958e-08
-8.67017e-06
6.72622e-08
-8.7356e-06
6.54231e-08
-8.79944e-06
6.38344e-08
-8.86195e-06
6.25108e-08
-8.92452e-06
6.25603e-08
-8.98628e-06
6.176e-08
-9.04758e-06
6.12908e-08
-9.10615e-06
5.85579e-08
-9.16401e-06
5.78401e-08
-9.22145e-06
5.74249e-08
-9.27856e-06
5.70942e-08
-9.33486e-06
5.62888e-08
-9.39055e-06
5.56709e-08
-9.44559e-06
5.5016e-08
-9.49963e-06
5.40237e-08
-9.54571e-06
4.60661e-08
-9.58872e-06
4.29829e-08
-9.6179e-06
2.91556e-08
-9.64437e-06
2.64487e-08
4.87431e-09
1.50994e-05
-8.56708e-07
1.51351e-05
1.16009e-06
1.50848e-05
3.50409e-06
1.50726e-05
3.48062e-06
1.49821e-05
1.20139e-06
1.76809e-05
-5.68753e-06
2.18801e-05
-1.01742e-05
2.65492e-05
-1.19858e-05
3.15364e-05
-1.28072e-05
3.64773e-05
-1.27268e-05
4.08269e-05
-1.10034e-05
4.47207e-05
-9.20888e-06
4.86945e-05
-8.33926e-06
5.29954e-05
-8.41703e-06
5.74745e-05
-8.773e-06
6.16987e-05
-8.56625e-06
6.52758e-05
-7.04377e-06
6.69588e-05
-3.73012e-06
6.62978e-05
-1.31766e-07
6.35892e-05
4.21858e-06
6.02324e-05
7.78918e-06
5.72011e-05
8.93923e-06
5.42832e-05
7.83317e-06
5.28815e-05
3.94592e-06
5.32933e-05
-2.03675e-07
5.47441e-05
-2.67346e-06
5.62008e-05
-3.27551e-06
5.72689e-05
-2.82069e-06
5.73798e-05
-1.01686e-06
5.58098e-05
1.8827e-06
5.28719e-05
4.11447e-06
4.94691e-05
6.38727e-06
4.59288e-05
8.56425e-06
4.17855e-05
9.83188e-06
3.74548e-05
1.03572e-05
3.35948e-05
8.69297e-06
2.96911e-05
7.409e-06
2.60865e-05
7.29396e-06
2.3434e-05
5.47458e-06
2.1648e-05
3.2278e-06
2.00945e-05
2.54409e-06
1.85202e-05
2.97105e-06
1.67939e-05
3.861e-06
1.51058e-05
4.1449e-06
1.3589e-05
3.07367e-06
1.24669e-05
1.74851e-06
1.15729e-05
1.48535e-06
1.05633e-05
2.03555e-06
9.30184e-06
2.93829e-06
7.99476e-06
3.22272e-06
6.65632e-06
2.54525e-06
5.72454e-06
1.36329e-06
5.28382e-06
5.75555e-07
5.07171e-06
2.16183e-07
4.79489e-06
1.72042e-07
4.19855e-06
5.55414e-07
3.2721e-06
1.08483e-06
2.133e-06
1.75634e-06
1.11017e-06
2.28294e-06
4.18583e-07
2.49123e-06
-1.54184e-07
2.46852e-06
-9.18551e-07
2.55634e-06
-2.17818e-06
2.80833e-06
-3.74395e-06
2.86855e-06
-5.27615e-06
2.57698e-06
-6.47255e-06
1.83566e-06
-7.25644e-06
8.25794e-07
-7.51416e-06
-3.18386e-07
-7.49555e-06
-1.00096e-06
-7.48193e-06
-1.19527e-06
-7.72246e-06
-1.07567e-06
-8.26695e-06
-8.83392e-07
-8.87948e-06
-9.64303e-07
-9.12527e-06
-1.50075e-06
-8.54247e-06
-2.45853e-06
-7.04251e-06
-2.9995e-06
-4.7061e-06
-2.90781e-06
-8.94938e-07
-1.62662e-06
1.59231e-06
-8.56963e-07
2.41439e-06
-7.68029e-07
1.41369e-06
2.45475e-06
2.13925e-07
2.16931e-06
2.06784e-07
1.29496e-06
-1.33273e-06
2.36885e-06
-2.24303e-06
1.88837e-06
-3.37829e-06
1.85666e-06
-4.3481e-06
1.48887e-06
-5.10676e-06
1.21709e-06
-5.39588e-06
5.74066e-07
-5.8432e-06
6.19074e-07
-6.10381e-06
3.27465e-07
-6.39577e-06
2.57758e-07
-6.50726e-06
-2.1985e-07
-6.58669e-06
-5.52466e-07
-6.5823e-06
-1.23089e-06
-6.62022e-06
-1.77303e-06
-6.63951e-06
-2.29982e-06
-6.1847e-06
-2.87501e-06
-5.17154e-06
-3.2552e-06
-3.13713e-06
-3.06222e-06
-5.33219e-07
-2.57385e-06
1.91294e-06
-1.98931e-06
3.30781e-06
-5.59028e-07
3.75697e-06
2.44965e-07
3.93967e-06
6.97985e-07
3.62352e-06
9.16951e-07
3.12303e-06
8.24585e-07
2.40781e-06
1.0559e-06
1.59195e-06
1.2503e-06
1.00717e-06
1.05161e-06
7.09935e-07
7.63426e-07
3.69087e-07
7.99479e-07
1.17456e-09
6.76264e-07
-3.99885e-07
5.20193e-07
-8.87175e-07
3.3964e-07
-1.3036e-06
1.04002e-07
-1.67109e-06
-9.95464e-08
-1.70369e-06
-7.70897e-08
-1.39876e-06
2.75842e-08
-9.21623e-07
-3.45428e-08
-7.50561e-07
3.47821e-07
-1.00498e-06
7.30437e-07
-1.31268e-06
9.23145e-07
-1.71497e-06
9.39451e-07
-2.15667e-06
8.71444e-07
-2.72946e-06
1.00048e-06
-3.22626e-06
8.98099e-07
-3.61742e-06
7.9507e-07
-4.01134e-06
8.2099e-07
-4.3872e-06
7.89763e-07
-4.76866e-06
7.76798e-07
-5.16038e-06
7.70422e-07
-5.52996e-06
7.15575e-07
-5.8801e-06
6.96502e-07
-6.22878e-06
6.96222e-07
-6.57165e-06
6.90236e-07
-6.90652e-06
6.72105e-07
-7.23226e-06
6.47753e-07
-7.55363e-06
6.35531e-07
-7.86506e-06
6.20874e-07
-8.16765e-06
6.10132e-07
-8.46079e-06
5.89999e-07
-8.74058e-06
5.62987e-07
-9.00715e-06
5.30953e-07
-9.26352e-06
5.0651e-07
-9.51437e-06
4.93888e-07
-9.75749e-06
4.82508e-07
-9.98724e-06
4.65033e-07
-1.02001e-05
4.34424e-07
-1.03994e-05
3.96915e-07
-1.05906e-05
3.76566e-07
-1.07768e-05
3.6628e-07
-1.09537e-05
3.51593e-07
-1.11144e-05
3.25761e-07
-1.12605e-05
2.98478e-07
-1.13981e-05
2.7801e-07
-1.15304e-05
2.61167e-07
-1.16555e-05
2.45867e-07
-1.17711e-05
2.28204e-07
-1.18759e-05
2.08297e-07
-1.19675e-05
1.84162e-07
-1.2047e-05
1.61044e-07
-1.21169e-05
1.40597e-07
-1.21794e-05
1.24023e-07
-1.22364e-05
1.13643e-07
-1.22853e-05
9.9031e-08
-1.23225e-05
7.33978e-08
-1.23459e-05
4.54482e-08
-1.236e-05
2.71159e-08
-1.2369e-05
1.85424e-08
-1.237e-05
6.10267e-09
-1.23611e-05
-1.53647e-08
-1.23407e-05
-4.35218e-08
-1.23079e-05
-6.81701e-08
-1.22652e-05
-8.75965e-08
-1.22137e-05
-1.02514e-07
-1.21562e-05
-1.09833e-07
-1.2094e-05
-1.18909e-07
-1.20242e-05
-1.37223e-07
-1.19449e-05
-1.58575e-07
-1.18527e-05
-1.8576e-07
-1.17466e-05
-2.13323e-07
-1.16301e-05
-2.32547e-07
-1.15053e-05
-2.47857e-07
-1.1374e-05
-2.59371e-07
-1.12393e-05
-2.6503e-07
-1.10983e-05
-2.8012e-07
-1.09459e-05
-3.07709e-07
-1.07793e-05
-3.36999e-07
-1.05986e-05
-3.61293e-07
-1.0406e-05
-3.78264e-07
-1.02045e-05
-3.92757e-07
-9.99626e-06
-4.09111e-07
-9.78065e-06
-4.30321e-07
-9.55293e-06
-4.6061e-07
-9.30883e-06
-4.94513e-07
-9.0506e-06
-5.231e-07
-8.78406e-06
-5.37576e-07
-8.51077e-06
-5.42115e-07
-8.23013e-06
-5.53028e-07
-7.9399e-06
-5.7417e-07
-7.63799e-06
-6.05946e-07
-7.32853e-06
-6.29266e-07
-7.01538e-06
-6.37078e-07
-6.70173e-06
-6.34263e-07
-6.38324e-06
-6.34594e-07
-6.0596e-06
-6.40608e-07
-5.73493e-06
-6.50492e-07
-5.41411e-06
-6.51072e-07
-5.10197e-06
-6.32497e-07
-4.79711e-06
-6.02561e-07
-4.49479e-06
-5.94094e-07
-4.19141e-06
-6.07583e-07
-3.88996e-06
-6.0827e-07
-3.5957e-06
-5.94769e-07
-3.31055e-06
-5.76969e-07
-3.03681e-06
-5.46858e-07
-2.77745e-06
-5.07391e-07
-2.52841e-06
-4.87498e-07
-2.28719e-06
-4.80469e-07
-2.0493e-06
-4.80163e-07
-1.81884e-06
-4.66702e-07
-1.59807e-06
-4.47851e-07
-1.38706e-06
-4.22615e-07
-1.18849e-06
-3.87167e-07
-1.00303e-06
-3.613e-07
-8.29344e-07
-3.44209e-07
-6.63083e-07
-3.35271e-07
-5.01996e-07
-3.27261e-07
-3.48062e-07
-3.13035e-07
-2.0372e-07
-2.91644e-07
-7.23893e-08
-2.58304e-07
4.88614e-08
-2.36836e-07
1.64738e-07
-2.27754e-07
2.76958e-07
-2.22113e-07
3.84007e-07
-2.14678e-07
4.84577e-07
-2.02039e-07
5.77335e-07
-1.85657e-07
6.6031e-07
-1.68065e-07
7.33437e-07
-1.51751e-07
8.00506e-07
-1.38108e-07
8.64891e-07
-1.26619e-07
9.28807e-07
-1.20669e-07
9.90008e-07
-1.17402e-07
1.04644e-06
-1.14484e-07
1.09841e-06
-1.08431e-07
1.14585e-06
-1.00945e-07
1.1886e-06
-8.85606e-08
1.22893e-06
-7.4569e-08
1.26886e-06
-7.5839e-08
1.30981e-06
-8.32578e-08
1.35015e-06
-8.34966e-08
1.38753e-06
-7.92737e-08
1.42352e-06
-7.57682e-08
1.45949e-06
-7.04743e-08
1.49715e-06
-7.11637e-08
1.53652e-06
-7.59156e-08
1.57659e-06
-7.96773e-08
1.61556e-06
-8.07335e-08
1.65258e-06
-7.85764e-08
1.69193e-06
-8.12757e-08
1.73629e-06
-8.71538e-08
1.78365e-06
-9.24516e-08
1.83271e-06
-9.83382e-08
1.88357e-06
-1.03935e-07
1.93553e-06
-1.06255e-07
1.98718e-06
-1.03433e-07
2.04059e-06
-1.04268e-07
2.09769e-06
-1.12811e-07
2.15918e-06
-1.23779e-07
2.22368e-06
-1.3032e-07
2.29013e-06
-1.34426e-07
2.35815e-06
-1.38523e-07
2.42868e-06
-1.42634e-07
2.50206e-06
-1.44191e-07
2.57759e-06
-1.47387e-07
2.65491e-06
-1.53451e-07
2.73428e-06
-1.60047e-07
2.8165e-06
-1.66157e-07
2.90182e-06
-1.71695e-07
2.9903e-06
-1.77573e-07
3.08107e-06
-1.82268e-07
3.17251e-06
-1.82727e-07
3.26522e-06
-1.83354e-07
3.36044e-06
-1.89384e-07
3.45865e-06
-1.96549e-07
3.55863e-06
-2.00364e-07
3.65956e-06
-2.02606e-07
3.76201e-06
-2.05851e-07
3.86631e-06
-2.08848e-07
3.97178e-06
-2.09595e-07
4.07838e-06
-2.1126e-07
4.18593e-06
-2.13922e-07
4.29382e-06
-2.15959e-07
4.40195e-06
-2.17101e-07
4.51084e-06
-2.18511e-07
4.62066e-06
-2.19298e-07
4.73091e-06
-2.18638e-07
4.84049e-06
-2.17567e-07
4.94846e-06
-2.15752e-07
5.05551e-06
-2.14699e-07
5.16255e-06
-2.1449e-07
5.26931e-06
-2.12961e-07
5.37464e-06
-2.09345e-07
5.47751e-06
-2.05057e-07
5.57818e-06
-2.01565e-07
5.6777e-06
-1.99031e-07
5.77578e-06
-1.9531e-07
5.87118e-06
-1.89881e-07
5.96326e-06
-1.83795e-07
6.0526e-06
-1.78646e-07
6.13934e-06
-1.73371e-07
6.22309e-06
-1.66975e-07
6.30318e-06
-1.59366e-07
6.37888e-06
-1.51025e-07
6.45063e-06
-1.43476e-07
6.51883e-06
-1.3627e-07
6.58317e-06
-1.28384e-07
6.64322e-06
-1.19765e-07
6.69863e-06
-1.10557e-07
6.74914e-06
-1.0095e-07
6.79482e-06
-9.13779e-08
6.83572e-06
-8.17843e-08
6.87169e-06
-7.17908e-08
6.90256e-06
-6.14578e-08
6.92818e-06
-5.11081e-08
6.9484e-06
-4.05567e-08
6.96307e-06
-2.95363e-08
6.97225e-06
-1.83925e-08
6.97609e-06
-7.5891e-09
6.97464e-06
2.87624e-09
6.96779e-06
1.34057e-08
6.95547e-06
2.42153e-08
6.93763e-06
3.54861e-08
6.91435e-06
4.68013e-08
6.88552e-06
5.76986e-08
6.85166e-06
6.74512e-08
6.81298e-06
7.70661e-08
6.76955e-06
8.66825e-08
6.72144e-06
9.61833e-08
6.66861e-06
1.05645e-07
6.61108e-06
1.1491e-07
6.54901e-06
1.23811e-07
6.48253e-06
1.32406e-07
6.41201e-06
1.40513e-07
6.33792e-06
1.4786e-07
6.26039e-06
1.54933e-07
6.17944e-06
1.6181e-07
6.09512e-06
1.68486e-07
6.00753e-06
1.74963e-07
5.91684e-06
1.81186e-07
5.82327e-06
1.86981e-07
5.7271e-06
1.92189e-07
5.62857e-06
1.96876e-07
5.52779e-06
2.01353e-07
5.42484e-06
2.05681e-07
5.31972e-06
2.09893e-07
5.21247e-06
2.13993e-07
5.10367e-06
2.17173e-07
4.99357e-06
2.19886e-07
4.88219e-06
2.22489e-07
4.76954e-06
2.24944e-07
4.65578e-06
2.27104e-07
4.54099e-06
2.29198e-07
4.42535e-06
2.31257e-07
4.30909e-06
2.3285e-07
4.19233e-06
2.33856e-07
4.07518e-06
2.34254e-07
3.95764e-06
2.34648e-07
3.83948e-06
2.35729e-07
3.7209e-06
2.3679e-07
3.60261e-06
2.36403e-07
3.48484e-06
2.35271e-07
3.36765e-06
2.34117e-07
3.25079e-06
2.33456e-07
3.13396e-06
2.3315e-07
3.01738e-06
2.3252e-07
2.90142e-06
2.31492e-07
2.78633e-06
2.30435e-07
2.67234e-06
2.28843e-07
2.55911e-06
2.26837e-07
2.44667e-06
2.24416e-07
2.33507e-06
2.22673e-07
2.22434e-06
2.21048e-07
2.11457e-06
2.19184e-07
2.00615e-06
2.16839e-07
1.89894e-06
2.14437e-07
1.79302e-06
2.11683e-07
1.68832e-06
2.08973e-07
1.58503e-06
2.06471e-07
1.48328e-06
2.038e-07
1.38314e-06
2.00688e-07
1.28442e-06
1.97272e-07
1.18714e-06
1.94173e-07
1.09139e-06
1.91021e-07
9.97508e-07
1.87506e-07
9.05497e-07
1.84009e-07
8.15386e-07
1.80944e-07
7.26672e-07
1.77988e-07
6.39303e-07
1.74731e-07
5.53337e-07
1.71319e-07
4.69912e-07
1.66623e-07
3.88143e-07
1.63213e-07
3.0833e-07
1.59672e-07
2.29488e-07
1.58505e-07
1.53114e-07
1.5461e-07
7.7594e-08
1.52272e-07
5.0082e-09
1.46151e-07
-6.77625e-08
1.45981e-07
-1.40929e-07
1.44785e-07
-2.11986e-07
1.41454e-07
-2.825e-07
1.38829e-07
-3.47812e-07
1.30265e-07
-4.1141e-07
1.28338e-07
-4.66159e-07
1.15882e-07
-5.23623e-07
1.16875e-07
-5.88889e-07
1.22231e-07
-6.50983e-07
1.11928e-07
-7.1218e-07
1.11231e-07
-7.61321e-07
1.06131e-07
-7.65627e-07
5.2453e-08
-7.82891e-07
6.80088e-08
-8.57808e-07
1.22619e-07
-9.30929e-07
7.63276e-08
-1.07593e-06
1.59092e-07
-1.28179e-06
2.69341e-07
-1.59323e-06
3.31831e-07
-1.84751e-06
3.53615e-07
-1.97089e-06
3.16726e-07
-2.03958e-06
3.68868e-07
-2.07113e-06
2.96588e-07
-2.14587e-06
2.18811e-07
-2.20555e-06
1.92464e-07
-2.27948e-06
1.62486e-07
-2.337e-06
1.36618e-07
-2.39263e-06
1.22125e-07
-2.43914e-06
1.0913e-07
-2.48904e-06
1.05437e-07
-2.51154e-06
6.85367e-08
-2.55202e-06
7.47978e-08
-2.63235e-06
1.14248e-07
-2.66973e-06
3.63994e-08
-2.71605e-06
6.57999e-08
-2.75489e-06
1.00027e-07
-2.821e-06
6.7031e-08
-2.78209e-06
-9.19893e-09
-2.6581e-06
-6.48044e-08
-2.57501e-06
-9.27314e-12
-2.54128e-06
-5.43766e-08
-2.56735e-06
-9.41585e-08
-2.55664e-06
-7.43184e-08
-2.56334e-06
-4.4003e-08
-2.54109e-06
-5.13106e-08
-2.5273e-06
-3.15751e-08
-2.51577e-06
-2.21836e-08
-2.51985e-06
-2.3511e-10
-2.51614e-06
-8.3744e-09
-2.51481e-06
-1.65905e-08
-2.53105e-06
1.87844e-08
-2.44967e-06
-9.65132e-08
-2.37586e-06
-8.18139e-08
-2.45133e-06
8.84006e-08
-2.53529e-06
-2.23976e-09
-2.82172e-06
2.08561e-07
-3.11568e-06
3.928e-07
-3.94653e-06
8.0279e-07
-4.52078e-06
7.71257e-07
-4.65205e-06
4.68613e-07
-4.53388e-06
8.30738e-07
-4.14706e-06
4.48274e-07
-4.06586e-06
1.03391e-07
-4.08304e-06
2.85157e-08
-4.16091e-06
-5.08182e-08
-4.2197e-06
-7.55029e-08
-4.25435e-06
-5.98349e-08
-4.28648e-06
-2.95711e-09
-4.32638e-06
3.56596e-08
-4.37074e-06
5.55435e-08
-4.42114e-06
6.69526e-08
-4.47367e-06
8.69067e-08
-4.52541e-06
1.01528e-07
-4.57824e-06
1.06637e-07
-4.6333e-06
1.12026e-07
-4.69022e-06
1.11578e-07
-4.75475e-06
1.20985e-07
-4.82423e-06
1.35999e-07
-4.89476e-06
1.44385e-07
-4.96626e-06
1.43872e-07
-5.03868e-06
1.45524e-07
-5.11462e-06
1.53024e-07
-5.19151e-06
1.57736e-07
-5.26885e-06
1.55912e-07
-5.3488e-06
1.55559e-07
-5.43136e-06
1.62064e-07
-5.51554e-06
1.72498e-07
-5.60119e-06
1.7789e-07
-5.68852e-06
1.80801e-07
-5.77819e-06
1.81151e-07
-5.86784e-06
1.80893e-07
-5.95674e-06
1.8086e-07
-6.04685e-06
1.80842e-07
-6.13939e-06
1.8495e-07
-6.23434e-06
1.9237e-07
-6.33111e-06
1.99072e-07
-6.42661e-06
1.97833e-07
-6.52103e-06
1.91708e-07
-6.61343e-06
1.83504e-07
-6.70467e-06
1.77553e-07
-6.79569e-06
1.76646e-07
-6.88602e-06
1.76119e-07
-6.97482e-06
1.76981e-07
-7.06171e-06
1.74228e-07
-7.14717e-06
1.70756e-07
-7.23204e-06
1.70497e-07
-7.31685e-06
1.6937e-07
-7.40125e-06
1.65595e-07
-7.48499e-06
1.62074e-07
-7.56797e-06
1.61076e-07
-7.65026e-06
1.62e-07
-7.73138e-06
1.63055e-07
-7.81099e-06
1.6311e-07
-7.88935e-06
1.61606e-07
-7.96665e-06
1.58707e-07
-8.04287e-06
1.54983e-07
-8.1179e-06
1.50944e-07
-8.19125e-06
1.47002e-07
-8.26287e-06
1.43597e-07
-8.33311e-06
1.41004e-07
-8.40231e-06
1.3896e-07
-8.47033e-06
1.36711e-07
-8.53686e-06
1.33791e-07
-8.60178e-06
1.30343e-07
-8.66556e-06
1.27621e-07
-8.7286e-06
1.25547e-07
-8.79117e-06
1.25135e-07
-8.8524e-06
1.22989e-07
-8.91204e-06
1.20933e-07
-8.97065e-06
1.17165e-07
-9.02839e-06
1.15577e-07
-9.08596e-06
1.14999e-07
-9.1427e-06
1.13833e-07
-9.19797e-06
1.11563e-07
-9.25264e-06
1.10348e-07
-9.3073e-06
1.09682e-07
-9.3606e-06
1.07332e-07
-9.41548e-06
1.00944e-07
-9.46823e-06
9.57339e-08
-9.52523e-06
8.61536e-08
-9.58156e-06
8.2777e-08
7.25735e-08
1.52024e-05
-1.51227e-06
1.54716e-05
8.91018e-07
1.58075e-05
3.16831e-06
1.63432e-05
2.94489e-06
1.81112e-05
-5.66623e-07
2.1032e-05
-8.60838e-06
2.42204e-05
-1.33626e-05
2.74256e-05
-1.51912e-05
3.04488e-05
-1.58305e-05
3.32946e-05
-1.55729e-05
3.5513e-05
-1.3222e-05
3.67888e-05
-1.04849e-05
3.83428e-05
-9.8935e-06
4.04003e-05
-1.04748e-05
4.2749e-05
-1.11219e-05
4.46401e-05
-1.04576e-05
4.53874e-05
-7.79129e-06
4.49508e-05
-3.29375e-06
4.32877e-05
1.53109e-06
4.21442e-05
5.36183e-06
4.24652e-05
7.46796e-06
4.36555e-05
7.74877e-06
4.51283e-05
6.36016e-06
4.60039e-05
3.07014e-06
4.59313e-05
-1.31306e-07
4.53366e-05
-2.07888e-06
4.4534e-05
-2.47313e-06
4.32767e-05
-1.5635e-06
4.12881e-05
9.71608e-07
3.91246e-05
4.04608e-06
3.65407e-05
6.69818e-06
3.40122e-05
8.91566e-06
3.17532e-05
1.08231e-05
2.98459e-05
1.17391e-05
2.87341e-05
1.14689e-05
2.68973e-05
1.05296e-05
2.42427e-05
1.00635e-05
2.21848e-05
9.35178e-06
2.08613e-05
6.79801e-06
1.96897e-05
4.39934e-06
1.85129e-05
3.72074e-06
1.73585e-05
4.12545e-06
1.6222e-05
4.9974e-06
1.51537e-05
5.21312e-06
1.39784e-05
4.24898e-06
1.29031e-05
2.82365e-06
1.19597e-05
2.42874e-06
1.09552e-05
3.03995e-06
9.81641e-06
4.07701e-06
8.59456e-06
4.44447e-06
7.19814e-06
3.94158e-06
5.94964e-06
2.6117e-06
4.9628e-06
1.56229e-06
4.10871e-06
1.07017e-06
3.16954e-06
1.11111e-06
2.07996e-06
1.6449e-06
9.53194e-07
2.21149e-06
1.25968e-07
2.58347e-06
-1.72501e-07
2.58131e-06
-7.07719e-08
2.38941e-06
1.99903e-08
2.37768e-06
-1.48501e-07
2.72476e-06
-9.53105e-07
3.61287e-06
-2.39714e-06
4.31253e-06
-4.04872e-06
4.2285e-06
-5.6763e-06
3.46318e-06
-7.08839e-06
2.23782e-06
-8.02729e-06
6.20458e-07
-8.55418e-06
-4.7412e-07
-8.9985e-06
-7.51013e-07
-9.5194e-06
-5.54814e-07
-1.01898e-05
-2.13086e-07
-1.10188e-05
-1.35256e-07
-1.18597e-05
-6.59981e-07
-1.25115e-05
-1.80675e-06
-1.28445e-05
-2.66655e-06
-1.25573e-05
-3.19514e-06
-1.08605e-05
-3.32349e-06
-8.57375e-06
-3.14381e-06
-6.58343e-06