/*--------------------------------*- C++ -*----------------------------------*\
| =========                 |                                                 |
| \\      /  F ield         | OpenFOAM: The Open Source CFD Toolbox           |
|  \\    /   O peration     | Version:  v2006                                 |
|   \\  /    A nd           | Website:  www.openfoam.com                      |
|    \\/     M anipulation  |                                                 |
\*---------------------------------------------------------------------------*/
FoamFile
{
    version     2.0;
    format      ascii;
    class       volScalarField;
    location    "0.3";
    object      k;
}
// * * * * * * * * * * * * * * * * * * * * * * * * * * * * * * * * * * * * * //

dimensions      [0 2 -2 0 0 0 0];


internalField   nonuniform List<scalar> 
33000
(
1.14182e-08
1.17815e-08
1.18042e-08
1.18013e-08
1.17975e-08
1.17935e-08
1.17885e-08
1.17833e-08
1.1778e-08
1.17726e-08
1.17671e-08
1.17614e-08
1.17558e-08
1.17498e-08
1.17428e-08
1.17356e-08
1.17283e-08
1.1721e-08
1.17137e-08
1.17064e-08
1.16989e-08
1.16898e-08
1.16805e-08
1.16712e-08
1.1662e-08
1.16528e-08
1.16437e-08
1.1633e-08
1.16215e-08
1.16101e-08
1.15987e-08
1.15874e-08
1.15762e-08
1.15646e-08
1.15504e-08
1.15361e-08
1.1522e-08
1.15081e-08
1.14937e-08
1.14768e-08
1.146e-08
1.14434e-08
1.14251e-08
1.14056e-08
1.13847e-08
1.13582e-08
1.13311e-08
1.13037e-08
1.12724e-08
1.12414e-08
1.12108e-08
1.11805e-08
1.11506e-08
1.1121e-08
1.10917e-08
1.10628e-08
1.10342e-08
1.10059e-08
1.09779e-08
1.09502e-08
1.09227e-08
1.08954e-08
1.08683e-08
1.08414e-08
1.08145e-08
1.07876e-08
1.07607e-08
1.07337e-08
1.07063e-08
1.06783e-08
1.06495e-08
1.06192e-08
1.05868e-08
1.05508e-08
1.0509e-08
1.04581e-08
1.03868e-08
1.03774e-08
1.01089e-08
1.0125e-08
1.00702e-08
1.00786e-08
1.00751e-08
1.00671e-08
1.00708e-08
1.0068e-08
1.00595e-08
1.00538e-08
1.00491e-08
1.00453e-08
1.00407e-08
1.00371e-08
1.00331e-08
1.00287e-08
1.00245e-08
1.00201e-08
1.00156e-08
1.00107e-08
1.00068e-08
1.00001e-08
9.99625e-09
9.99154e-09
9.98757e-09
9.98343e-09
9.9793e-09
9.97532e-09
9.9713e-09
9.96727e-09
9.96332e-09
9.95943e-09
9.95561e-09
9.95182e-09
9.94809e-09
9.94438e-09
9.94073e-09
9.93676e-09
9.93375e-09
9.92818e-09
9.92536e-09
9.92185e-09
9.919e-09
9.9161e-09
9.9132e-09
9.91043e-09
9.90767e-09
9.90491e-09
9.90223e-09
9.89959e-09
9.897e-09
9.89445e-09
9.89195e-09
9.8895e-09
9.8871e-09
9.88474e-09
9.88243e-09
9.88017e-09
9.87796e-09
9.87579e-09
9.87366e-09
9.87158e-09
9.86955e-09
9.86756e-09
9.86561e-09
9.86371e-09
9.86184e-09
9.86002e-09
9.85823e-09
9.85648e-09
9.85478e-09
9.85311e-09
9.85147e-09
9.84988e-09
9.84832e-09
9.84679e-09
9.8453e-09
9.84384e-09
9.84241e-09
9.84102e-09
9.83966e-09
9.83833e-09
9.83703e-09
9.83576e-09
9.83452e-09
9.83331e-09
9.83213e-09
9.83098e-09
9.82985e-09
9.82875e-09
9.82768e-09
9.82663e-09
9.82561e-09
9.82461e-09
9.82363e-09
9.82268e-09
9.82175e-09
9.82085e-09
9.81996e-09
9.8191e-09
9.81825e-09
9.81743e-09
9.81663e-09
9.81585e-09
9.81508e-09
9.81434e-09
9.81362e-09
9.81292e-09
9.81223e-09
9.81156e-09
9.81091e-09
9.81028e-09
9.80967e-09
9.80907e-09
9.80849e-09
9.80792e-09
9.80737e-09
9.80684e-09
9.80632e-09
9.80581e-09
9.80532e-09
9.80484e-09
9.80437e-09
9.80392e-09
9.80347e-09
9.80304e-09
9.80262e-09
9.80221e-09
9.80182e-09
9.80143e-09
9.80106e-09
9.8007e-09
9.80035e-09
9.80001e-09
9.79968e-09
9.79935e-09
9.79904e-09
9.79873e-09
9.79843e-09
9.79813e-09
9.79785e-09
9.79757e-09
9.79729e-09
9.79702e-09
9.79676e-09
9.79651e-09
9.79626e-09
9.79601e-09
9.79577e-09
9.79554e-09
9.79531e-09
9.79509e-09
9.79487e-09
9.79466e-09
9.79446e-09
9.79426e-09
9.79406e-09
9.79387e-09
9.79368e-09
9.7935e-09
9.79332e-09
9.79315e-09
9.79298e-09
9.79281e-09
9.79265e-09
9.79249e-09
9.79234e-09
9.79219e-09
9.79204e-09
9.79189e-09
9.79175e-09
9.79161e-09
9.79147e-09
9.79133e-09
9.7912e-09
9.79108e-09
9.79095e-09
9.79083e-09
9.79071e-09
9.79059e-09
9.79048e-09
9.79038e-09
9.79027e-09
9.79017e-09
9.79007e-09
9.78997e-09
9.78987e-09
9.78978e-09
9.78968e-09
9.7896e-09
9.78951e-09
9.78943e-09
9.78936e-09
9.78928e-09
9.78922e-09
9.78915e-09
9.78909e-09
9.78903e-09
9.78897e-09
9.78891e-09
9.78885e-09
9.7888e-09
9.78874e-09
9.78868e-09
9.78862e-09
9.78856e-09
9.78851e-09
9.78846e-09
9.78841e-09
9.78836e-09
9.78831e-09
9.78827e-09
9.78823e-09
9.78819e-09
9.78815e-09
9.78811e-09
9.78808e-09
9.78804e-09
9.788e-09
9.78797e-09
9.78793e-09
9.78789e-09
9.78786e-09
9.78782e-09
9.78779e-09
9.78775e-09
9.78772e-09
9.78769e-09
9.78766e-09
9.78763e-09
9.78761e-09
9.78758e-09
9.78756e-09
9.78753e-09
9.78751e-09
9.78748e-09
9.78745e-09
9.78742e-09
9.78739e-09
9.78737e-09
9.78734e-09
9.78731e-09
9.78729e-09
9.78727e-09
9.78725e-09
9.78723e-09
9.78722e-09
9.7872e-09
9.78719e-09
9.78717e-09
9.78716e-09
9.78714e-09
9.78712e-09
9.78711e-09
9.78709e-09
9.78708e-09
9.78706e-09
9.78705e-09
9.78705e-09
9.78704e-09
9.78704e-09
9.78703e-09
9.78703e-09
9.78702e-09
9.78701e-09
9.787e-09
9.78698e-09
9.78697e-09
9.78696e-09
9.78695e-09
9.78694e-09
9.78693e-09
9.78692e-09
9.78692e-09
9.78691e-09
9.7869e-09
9.78689e-09
9.78688e-09
9.78686e-09
9.78685e-09
9.78684e-09
9.78683e-09
9.78683e-09
9.78682e-09
9.78682e-09
9.78682e-09
9.78681e-09
9.78681e-09
9.78682e-09
9.78682e-09
9.78684e-09
9.78685e-09
9.78686e-09
9.78687e-09
9.78688e-09
9.78689e-09
9.7869e-09
9.78691e-09
9.78692e-09
9.78693e-09
9.78694e-09
9.78694e-09
9.78695e-09
9.78695e-09
9.78696e-09
9.78696e-09
9.78696e-09
9.78696e-09
9.78696e-09
9.78695e-09
9.78695e-09
9.78695e-09
9.78694e-09
9.78693e-09
9.78692e-09
9.78691e-09
9.7869e-09
9.78689e-09
9.78688e-09
9.78687e-09
9.78685e-09
9.78684e-09
9.78682e-09
9.78681e-09
9.78679e-09
9.78677e-09
9.78675e-09
9.78673e-09
9.78672e-09
9.7867e-09
9.78668e-09
9.78667e-09
9.78665e-09
9.78663e-09
9.78662e-09
9.78661e-09
9.7866e-09
9.7866e-09
9.7866e-09
9.78661e-09
9.78661e-09
9.78661e-09
9.78661e-09
9.78662e-09
9.78662e-09
9.78661e-09
9.78661e-09
9.78661e-09
9.78661e-09
9.78661e-09
9.78661e-09
9.7866e-09
9.7866e-09
9.78659e-09
9.78659e-09
9.78658e-09
9.78658e-09
9.78657e-09
9.78656e-09
9.78655e-09
9.78654e-09
9.78653e-09
9.78653e-09
9.78653e-09
9.78654e-09
9.78655e-09
9.78655e-09
9.78656e-09
9.78657e-09
9.78659e-09
9.7866e-09
9.78661e-09
9.78662e-09
9.78664e-09
9.78665e-09
9.78666e-09
9.78668e-09
9.78669e-09
9.7867e-09
9.7867e-09
9.78671e-09
9.78671e-09
9.78671e-09
9.78671e-09
9.78671e-09
9.7867e-09
9.7867e-09
9.78669e-09
9.78666e-09
9.78666e-09
9.78662e-09
9.78682e-09
9.78676e-09
9.78675e-09
9.78674e-09
9.78671e-09
9.78669e-09
9.78668e-09
9.78668e-09
9.78668e-09
9.7867e-09
9.78671e-09
9.78673e-09
9.78676e-09
9.7868e-09
9.78683e-09
9.78687e-09
9.78691e-09
9.78695e-09
9.78699e-09
9.78704e-09
9.78708e-09
9.78712e-09
9.78716e-09
9.78719e-09
9.78722e-09
9.78724e-09
9.78726e-09
9.78727e-09
9.78728e-09
9.78729e-09
9.78729e-09
9.7873e-09
9.7873e-09
9.78731e-09
9.78731e-09
9.78732e-09
9.78732e-09
9.78732e-09
9.78732e-09
9.78731e-09
9.7873e-09
9.78729e-09
9.78727e-09
9.78725e-09
9.78722e-09
9.78718e-09
9.78715e-09
9.78711e-09
9.78708e-09
9.78705e-09
9.78702e-09
9.78699e-09
9.78697e-09
9.78694e-09
9.78692e-09
9.78689e-09
9.78685e-09
9.78683e-09
9.7868e-09
9.78678e-09
9.78676e-09
9.78674e-09
9.7867e-09
9.78666e-09
9.78663e-09
9.78662e-09
9.7866e-09
9.7866e-09
9.78661e-09
9.78662e-09
9.78661e-09
9.78659e-09
9.78658e-09
9.78657e-09
9.78659e-09
9.78657e-09
9.78653e-09
9.78652e-09
9.7865e-09
9.78653e-09
9.79048e-09
1.00033e-08
1.00041e-08
1.00045e-08
1.00044e-08
1.0004e-08
1.00043e-08
1.00045e-08
1.00046e-08
1.00047e-08
1.00047e-08
1.00047e-08
1.00048e-08
1.00048e-08
1.00048e-08
1.00049e-08
1.00049e-08
1.00049e-08
1.00049e-08
1.0005e-08
1.0005e-08
1.0005e-08
1.0005e-08
1.0005e-08
1.0005e-08
1.0005e-08
1.0005e-08
1.0005e-08
1.0005e-08
1.00049e-08
1.00049e-08
1.00049e-08
1.00049e-08
1.00049e-08
1.00049e-08
1.00049e-08
1.00049e-08
1.00048e-08
1.00048e-08
1.00048e-08
1.00048e-08
1.00048e-08
1.00048e-08
1.00048e-08
1.00048e-08
1.00048e-08
1.00048e-08
1.00048e-08
1.00048e-08
1.00048e-08
1.00048e-08
1.00048e-08
1.00047e-08
1.00047e-08
1.00047e-08
1.00047e-08
1.00047e-08
1.00047e-08
1.00047e-08
1.00047e-08
1.00047e-08
1.00046e-08
1.00046e-08
1.00046e-08
1.00045e-08
1.00044e-08
1.00044e-08
1.00043e-08
1.00043e-08
1.00042e-08
1.00042e-08
1.00042e-08
1.00042e-08
1.00043e-08
1.00046e-08
1.0005e-08
1.00056e-08
1.00067e-08
1.0009e-08
1.00072e-08
1.00041e-08
1.00032e-08
1.00027e-08
1.00032e-08
1.00029e-08
1.00027e-08
1.00033e-08
1.00017e-08
9.99998e-09
1.00006e-08
1.00013e-08
1.00015e-08
1.0001e-08
1.00011e-08
1.00009e-08
1.00008e-08
1.0001e-08
1.00011e-08
1.00011e-08
1.0001e-08
1.00011e-08
1.00011e-08
1.00014e-08
1.00014e-08
1.00011e-08
1.00011e-08
1.0001e-08
1.0001e-08
1.00009e-08
1.00008e-08
1.00008e-08
1.00008e-08
1.00008e-08
1.00007e-08
1.00007e-08
1.00007e-08
1.00007e-08
1.00006e-08
1.00006e-08
1.00007e-08
1.00009e-08
1.00009e-08
1.00006e-08
1.00006e-08
1.00005e-08
1.00004e-08
1.00004e-08
1.00004e-08
1.00004e-08
1.00004e-08
1.00003e-08
1.00003e-08
1.00003e-08
1.00003e-08
1.00003e-08
1.00002e-08
1.00002e-08
1.00002e-08
1.00002e-08
1.00001e-08
1.00001e-08
1.00001e-08
1.00001e-08
1.00001e-08
1e-08
1e-08
1e-08
9.99999e-09
9.99997e-09
9.99995e-09
9.99993e-09
9.99992e-09
9.9999e-09
9.99988e-09
9.99986e-09
9.99984e-09
9.99983e-09
9.99981e-09
9.99979e-09
9.99977e-09
9.99976e-09
9.99974e-09
9.99973e-09
9.99971e-09
9.99969e-09
9.99968e-09
9.99966e-09
9.99964e-09
9.99963e-09
9.99961e-09
9.9996e-09
9.99958e-09
9.99957e-09
9.99956e-09
9.99955e-09
9.99953e-09
9.99952e-09
9.99951e-09
9.9995e-09
9.99949e-09
9.99948e-09
9.99947e-09
9.99947e-09
9.99946e-09
9.99945e-09
9.99944e-09
9.99943e-09
9.99943e-09
9.99942e-09
9.99941e-09
9.99941e-09
9.9994e-09
9.9994e-09
9.99939e-09
9.99939e-09
9.99938e-09
9.99938e-09
9.99938e-09
9.99937e-09
9.99937e-09
9.99937e-09
9.99936e-09
9.99936e-09
9.99936e-09
9.99935e-09
9.99935e-09
9.99935e-09
9.99935e-09
9.99934e-09
9.99934e-09
9.99934e-09
9.99934e-09
9.99934e-09
9.99934e-09
9.99934e-09
9.99933e-09
9.99933e-09
9.99933e-09
9.99933e-09
9.99933e-09
9.99933e-09
9.99933e-09
9.99932e-09
9.99932e-09
9.99932e-09
9.99932e-09
9.99932e-09
9.99932e-09
9.99932e-09
9.99932e-09
9.99932e-09
9.99932e-09
9.99932e-09
9.99931e-09
9.99931e-09
9.99931e-09
9.99931e-09
9.99931e-09
9.99931e-09
9.99931e-09
9.99931e-09
9.99931e-09
9.99931e-09
9.99931e-09
9.99931e-09
9.99931e-09
9.9993e-09
9.9993e-09
9.9993e-09
9.9993e-09
9.9993e-09
9.9993e-09
9.9993e-09
9.9993e-09
9.9993e-09
9.9993e-09
9.99929e-09
9.99929e-09
9.99929e-09
9.99929e-09
9.99929e-09
9.99929e-09
9.99929e-09
9.99929e-09
9.99929e-09
9.99929e-09
9.99928e-09
9.99928e-09
9.99928e-09
9.99928e-09
9.99928e-09
9.99928e-09
9.99928e-09
9.99928e-09
9.99928e-09
9.99928e-09
9.99928e-09
9.99928e-09
9.99928e-09
9.99928e-09
9.99928e-09
9.99928e-09
9.99928e-09
9.99928e-09
9.99928e-09
9.99928e-09
9.99928e-09
9.99928e-09
9.99928e-09
9.99928e-09
9.99928e-09
9.99928e-09
9.99928e-09
9.99928e-09
9.99928e-09
9.99928e-09
9.99928e-09
9.99928e-09
9.99928e-09
9.99928e-09
9.99928e-09
9.99928e-09
9.99928e-09
9.99928e-09
9.99928e-09
9.99928e-09
9.99928e-09
9.99928e-09
9.99928e-09
9.99928e-09
9.99928e-09
9.99928e-09
9.99928e-09
9.99928e-09
9.99928e-09
9.99928e-09
9.99928e-09
9.99928e-09
9.99928e-09
9.99928e-09
9.99928e-09
9.99928e-09
9.99928e-09
9.99928e-09
9.99928e-09
9.99929e-09
9.99929e-09
9.99929e-09
9.99928e-09
9.99928e-09
9.99928e-09
9.99928e-09
9.99928e-09
9.99928e-09
9.99928e-09
9.99928e-09
9.99928e-09
9.99928e-09
9.99928e-09
9.99928e-09
9.99928e-09
9.99928e-09
9.99928e-09
9.99928e-09
9.99928e-09
9.99928e-09
9.99927e-09
9.99927e-09
9.99927e-09
9.99927e-09
9.99927e-09
9.99927e-09
9.99927e-09
9.99927e-09
9.99927e-09
9.99927e-09
9.99926e-09
9.99926e-09
9.99926e-09
9.99926e-09
9.99926e-09
9.99926e-09
9.99926e-09
9.99926e-09
9.99926e-09
9.99926e-09
9.99926e-09
9.99925e-09
9.99925e-09
9.99925e-09
9.99925e-09
9.99925e-09
9.99925e-09
9.99925e-09
9.99925e-09
9.99925e-09
9.99925e-09
9.99925e-09
9.99925e-09
9.99924e-09
9.99924e-09
9.99924e-09
9.99924e-09
9.99924e-09
9.99924e-09
9.99924e-09
9.99924e-09
9.99924e-09
9.99924e-09
9.99924e-09
9.99924e-09
9.99923e-09
9.99923e-09
9.99923e-09
9.99923e-09
9.99923e-09
9.99923e-09
9.99923e-09
9.99923e-09
9.99923e-09
9.99923e-09
9.99923e-09
9.99923e-09
9.99923e-09
9.99923e-09
9.99922e-09
9.99922e-09
9.99922e-09
9.99922e-09
9.99922e-09
9.99922e-09
9.99922e-09
9.99922e-09
9.99922e-09
9.99922e-09
9.99922e-09
9.99922e-09
9.99922e-09
9.99922e-09
9.99922e-09
9.99922e-09
9.99922e-09
9.99922e-09
9.99922e-09
9.99922e-09
9.99922e-09
9.99922e-09
9.99922e-09
9.99922e-09
9.99922e-09
9.99922e-09
9.99922e-09
9.99922e-09
9.99922e-09
9.99922e-09
9.99922e-09
9.99922e-09
9.99922e-09
9.99922e-09
9.99922e-09
9.99922e-09
9.99922e-09
9.99922e-09
9.99922e-09
9.99922e-09
9.99922e-09
9.99922e-09
9.99922e-09
9.99922e-09
9.99922e-09
9.99922e-09
9.99922e-09
9.99922e-09
9.99921e-09
9.99921e-09
9.99921e-09
9.99921e-09
9.99921e-09
9.99921e-09
9.99921e-09
9.99921e-09
9.99921e-09
9.99921e-09
9.99921e-09
9.99921e-09
9.99921e-09
9.99921e-09
9.9992e-09
9.99919e-09
9.99918e-09
9.99917e-09
9.99917e-09
9.99918e-09
9.99917e-09
9.99917e-09
9.99917e-09
9.99917e-09
9.99917e-09
9.99917e-09
9.99918e-09
9.99918e-09
9.99918e-09
9.99918e-09
9.99918e-09
9.99918e-09
9.99918e-09
9.99919e-09
9.99919e-09
9.99919e-09
9.99919e-09
9.99919e-09
9.9992e-09
9.9992e-09
9.9992e-09
9.9992e-09
9.9992e-09
9.99921e-09
9.99921e-09
9.99921e-09
9.99922e-09
9.99922e-09
9.99922e-09
9.99923e-09
9.99923e-09
9.99924e-09
9.99924e-09
9.99924e-09
9.99924e-09
9.99925e-09
9.99925e-09
9.99925e-09
9.99925e-09
9.99925e-09
9.99925e-09
9.99925e-09
9.99925e-09
9.99926e-09
9.99926e-09
9.99926e-09
9.99926e-09
9.99926e-09
9.99926e-09
9.99926e-09
9.99926e-09
9.99926e-09
9.99926e-09
9.99926e-09
9.99926e-09
9.99927e-09
9.99927e-09
9.99927e-09
9.99926e-09
9.99926e-09
9.99926e-09
9.99926e-09
9.99926e-09
9.99926e-09
9.99926e-09
9.99926e-09
9.99927e-09
9.99927e-09
9.99927e-09
9.99927e-09
9.99927e-09
9.99927e-09
9.99927e-09
9.99926e-09
9.99926e-09
9.99926e-09
9.99926e-09
9.99926e-09
1.00017e-08
1.00016e-08
1.00016e-08
1.00015e-08
1.00013e-08
1.00014e-08
1.00013e-08
1.00012e-08
1.00012e-08
1.00011e-08
1.0001e-08
1.00009e-08
1.00009e-08
1.00008e-08
1.00007e-08
1.00007e-08
1.00007e-08
1.00006e-08
1.00006e-08
1.00006e-08
1.00006e-08
1.00006e-08
1.00006e-08
1.00006e-08
1.00006e-08
1.00006e-08
1.00006e-08
1.00007e-08
1.00007e-08
1.00007e-08
1.00008e-08
1.00008e-08
1.00008e-08
1.00009e-08
1.00009e-08
1.00009e-08
1.00009e-08
1.00009e-08
1.00009e-08
1.00009e-08
1.00009e-08
1.00009e-08
1.00009e-08
1.00009e-08
1.00009e-08
1.00009e-08
1.00009e-08
1.0001e-08
1.0001e-08
1.00011e-08
1.00011e-08
1.00012e-08
1.00013e-08
1.00014e-08
1.00014e-08
1.00015e-08
1.00015e-08
1.00016e-08
1.00016e-08
1.00016e-08
1.00016e-08
1.00016e-08
1.00016e-08
1.00015e-08
1.00015e-08
1.00015e-08
1.00014e-08
1.00014e-08
1.00014e-08
1.00013e-08
1.00013e-08
1.00013e-08
1.00013e-08
1.00013e-08
1.00013e-08
1.00013e-08
1.00013e-08
1.00012e-08
1.00011e-08
1.00013e-08
1.00015e-08
1.00018e-08
1.00017e-08
1.00018e-08
1.0002e-08
1.00021e-08
1.00021e-08
1.0002e-08
1.00018e-08
1.00019e-08
1e-08
1.00004e-08
1.00015e-08
1.00016e-08
1.00014e-08
1.00014e-08
1.00013e-08
1.00012e-08
1.00013e-08
1.00013e-08
1.00014e-08
1.00014e-08
1.00014e-08
1.00014e-08
1.00015e-08
1.00015e-08
1.00014e-08
1.00014e-08
1.00013e-08
1.00012e-08
1.00012e-08
1.00011e-08
1.00011e-08
1.00011e-08
1.0001e-08
1.0001e-08
1.00009e-08
1.00009e-08
1.00009e-08
1.00009e-08
1.0001e-08
1.0001e-08
1.00012e-08
1.00012e-08
1.00009e-08
1.00009e-08
1.00008e-08
1.00008e-08
1.00007e-08
1.00007e-08
1.00007e-08
1.00007e-08
1.00007e-08
1.00007e-08
1.00006e-08
1.00006e-08
1.00006e-08
1.00006e-08
1.00006e-08
1.00005e-08
1.00005e-08
1.00005e-08
1.00005e-08
1.00005e-08
1.00005e-08
1.00005e-08
1.00004e-08
1.00004e-08
1.00004e-08
1.00004e-08
1.00004e-08
1.00004e-08
1.00004e-08
1.00003e-08
1.00003e-08
1.00003e-08
1.00003e-08
1.00003e-08
1.00003e-08
1.00003e-08
1.00003e-08
1.00002e-08
1.00002e-08
1.00002e-08
1.00002e-08
1.00002e-08
1.00002e-08
1.00002e-08
1.00002e-08
1.00002e-08
1.00001e-08
1.00001e-08
1.00001e-08
1.00001e-08
1.00001e-08
1.00001e-08
1.00001e-08
1.00001e-08
1.00001e-08
1.00001e-08
1.00001e-08
1e-08
1e-08
1e-08
1e-08
1e-08
1e-08
1e-08
9.99999e-09
9.99998e-09
9.99998e-09
9.99997e-09
9.99996e-09
9.99996e-09
9.99995e-09
9.99994e-09
9.99994e-09
9.99993e-09
9.99992e-09
9.99991e-09
9.99991e-09
9.9999e-09
9.99989e-09
9.99989e-09
9.99988e-09
9.99988e-09
9.99987e-09
9.99987e-09
9.99987e-09
9.99986e-09
9.99986e-09
9.99986e-09
9.99985e-09
9.99985e-09
9.99985e-09
9.99984e-09
9.99984e-09
9.99984e-09
9.99984e-09
9.99983e-09
9.99983e-09
9.99983e-09
9.99983e-09
9.99983e-09
9.99982e-09
9.99982e-09
9.99982e-09
9.99982e-09
9.99982e-09
9.99982e-09
9.99982e-09
9.99981e-09
9.99981e-09
9.99981e-09
9.99981e-09
9.99981e-09
9.99981e-09
9.99981e-09
9.99981e-09
9.99981e-09
9.99981e-09
9.9998e-09
9.9998e-09
9.9998e-09
9.9998e-09
9.9998e-09
9.9998e-09
9.9998e-09
9.9998e-09
9.9998e-09
9.99979e-09
9.99979e-09
9.99979e-09
9.99979e-09
9.99979e-09
9.99979e-09
9.99979e-09
9.99979e-09
9.99979e-09
9.99979e-09
9.99979e-09
9.99979e-09
9.99978e-09
9.99978e-09
9.99978e-09
9.99978e-09
9.99978e-09
9.99978e-09
9.99978e-09
9.99978e-09
9.99978e-09
9.99978e-09
9.99978e-09
9.99978e-09
9.99978e-09
9.99978e-09
9.99978e-09
9.99978e-09
9.99977e-09
9.99977e-09
9.99977e-09
9.99977e-09
9.99977e-09
9.99977e-09
9.99977e-09
9.99977e-09
9.99977e-09
9.99977e-09
9.99978e-09
9.99978e-09
9.99978e-09
9.99978e-09
9.99978e-09
9.99978e-09
9.99978e-09
9.99978e-09
9.99978e-09
9.99978e-09
9.99978e-09
9.99978e-09
9.99978e-09
9.99978e-09
9.99978e-09
9.99978e-09
9.99978e-09
9.99978e-09
9.99978e-09
9.99978e-09
9.99978e-09
9.99978e-09
9.99978e-09
9.99978e-09
9.99978e-09
9.99978e-09
9.99978e-09
9.99978e-09
9.99978e-09
9.99978e-09
9.99978e-09
9.99978e-09
9.99978e-09
9.99978e-09
9.99978e-09
9.99978e-09
9.99978e-09
9.99978e-09
9.99978e-09
9.99978e-09
9.99978e-09
9.99978e-09
9.99978e-09
9.99978e-09
9.99978e-09
9.99978e-09
9.99978e-09
9.99978e-09
9.99978e-09
9.99978e-09
9.99978e-09
9.99978e-09
9.99978e-09
9.99978e-09
9.99978e-09
9.99978e-09
9.99977e-09
9.99977e-09
9.99977e-09
9.99977e-09
9.99977e-09
9.99977e-09
9.99977e-09
9.99977e-09
9.99977e-09
9.99977e-09
9.99977e-09
9.99976e-09
9.99976e-09
9.99976e-09
9.99976e-09
9.99976e-09
9.99976e-09
9.99976e-09
9.99976e-09
9.99976e-09
9.99976e-09
9.99976e-09
9.99976e-09
9.99975e-09
9.99975e-09
9.99975e-09
9.99975e-09
9.99975e-09
9.99975e-09
9.99975e-09
9.99975e-09
9.99975e-09
9.99975e-09
9.99975e-09
9.99975e-09
9.99975e-09
9.99975e-09
9.99974e-09
9.99974e-09
9.99974e-09
9.99974e-09
9.99974e-09
9.99974e-09
9.99974e-09
9.99974e-09
9.99974e-09
9.99974e-09
9.99974e-09
9.99974e-09
9.99974e-09
9.99973e-09
9.99973e-09
9.99973e-09
9.99973e-09
9.99973e-09
9.99973e-09
9.99973e-09
9.99973e-09
9.99973e-09
9.99973e-09
9.99973e-09
9.99973e-09
9.99973e-09
9.99973e-09
9.99973e-09
9.99973e-09
9.99973e-09
9.99973e-09
9.99973e-09
9.99973e-09
9.99973e-09
9.99973e-09
9.99973e-09
9.99973e-09
9.99973e-09
9.99973e-09
9.99973e-09
9.99973e-09
9.99973e-09
9.99972e-09
9.99972e-09
9.99972e-09
9.99972e-09
9.99973e-09
9.99973e-09
9.99973e-09
9.99973e-09
9.99973e-09
9.99973e-09
9.99973e-09
9.99973e-09
9.99973e-09
9.99973e-09
9.99973e-09
9.99972e-09
9.99972e-09
9.99972e-09
9.99972e-09
9.99972e-09
9.99972e-09
9.99972e-09
9.99972e-09
9.99972e-09
9.99972e-09
9.99972e-09
9.99972e-09
9.99972e-09
9.99972e-09
9.99972e-09
9.99972e-09
9.99972e-09
9.99972e-09
9.99972e-09
9.99972e-09
9.99972e-09
9.99972e-09
9.99972e-09
9.99972e-09
9.99973e-09
9.99972e-09
9.9997e-09
9.9997e-09
9.99969e-09
9.99969e-09
9.99969e-09
9.99969e-09
9.99969e-09
9.99969e-09
9.99969e-09
9.99969e-09
9.99969e-09
9.99969e-09
9.99969e-09
9.99969e-09
9.99969e-09
9.99969e-09
9.99969e-09
9.99969e-09
9.99969e-09
9.99969e-09
9.99969e-09
9.99969e-09
9.9997e-09
9.9997e-09
9.9997e-09
9.9997e-09
9.9997e-09
9.99971e-09
9.99971e-09
9.99971e-09
9.99971e-09
9.99971e-09
9.99972e-09
9.99972e-09
9.99972e-09
9.99973e-09
9.99973e-09
9.99973e-09
9.99973e-09
9.99974e-09
9.99974e-09
9.99974e-09
9.99975e-09
9.99975e-09
9.99975e-09
9.99975e-09
9.99975e-09
9.99975e-09
9.99975e-09
9.99975e-09
9.99976e-09
9.99976e-09
9.99976e-09
9.99976e-09
9.99976e-09
9.99976e-09
9.99976e-09
9.99976e-09
9.99976e-09
9.99976e-09
9.99976e-09
9.99976e-09
9.99977e-09
9.99977e-09
9.99977e-09
9.99976e-09
9.99976e-09
9.99976e-09
9.99976e-09
9.99976e-09
9.99976e-09
9.99976e-09
9.99976e-09
9.99977e-09
9.99977e-09
9.99976e-09
9.99976e-09
9.99977e-09
9.99977e-09
9.99976e-09
9.99976e-09
9.99976e-09
9.99976e-09
9.99976e-09
9.99977e-09
9.99975e-09
1.00014e-08
1.00018e-08
1.00018e-08
1.00018e-08
1.00017e-08
1.00017e-08
1.00017e-08
1.00016e-08
1.00015e-08
1.00015e-08
1.00014e-08
1.00013e-08
1.00013e-08
1.00012e-08
1.00012e-08
1.00012e-08
1.00011e-08
1.00011e-08
1.00011e-08
1.00011e-08
1.00011e-08
1.00011e-08
1.00012e-08
1.00012e-08
1.00012e-08
1.00012e-08
1.00012e-08
1.00012e-08
1.00013e-08
1.00013e-08
1.00013e-08
1.00013e-08
1.00014e-08
1.00014e-08
1.00014e-08
1.00014e-08
1.00014e-08
1.00014e-08
1.00014e-08
1.00014e-08
1.00013e-08
1.00013e-08
1.00013e-08
1.00013e-08
1.00013e-08
1.00013e-08
1.00013e-08
1.00014e-08
1.00014e-08
1.00015e-08
1.00016e-08
1.00016e-08
1.00017e-08
1.00018e-08
1.00018e-08
1.00018e-08
1.00019e-08
1.00019e-08
1.00019e-08
1.00018e-08
1.00018e-08
1.00018e-08
1.00018e-08
1.00017e-08
1.00017e-08
1.00017e-08
1.00017e-08
1.00016e-08
1.00016e-08
1.00016e-08
1.00015e-08
1.00015e-08
1.00015e-08
1.00015e-08
1.00015e-08
1.00015e-08
1.00015e-08
1.00014e-08
1.00014e-08
1.00013e-08
1.00004e-08
1.00008e-08
1.00015e-08
1.00017e-08
1.00019e-08
1.00019e-08
1.00019e-08
1.0002e-08
1.00021e-08
1.00022e-08
1.00022e-08
1.00019e-08
1.0002e-08
1.00005e-08
1.00002e-08
1.00016e-08
1.00017e-08
1.00015e-08
1.00015e-08
1.00014e-08
1.00013e-08
1.00014e-08
1.00014e-08
1.00014e-08
1.00014e-08
1.00014e-08
1.00014e-08
1.00014e-08
1.00015e-08
1.00015e-08
1.00013e-08
1.00013e-08
1.00011e-08
1.00011e-08
1.0001e-08
1.0001e-08
1.0001e-08
1.0001e-08
1.00009e-08
1.00009e-08
1.00009e-08
1.00009e-08
1.00009e-08
1.0001e-08
1.00009e-08
1.00012e-08
1.00011e-08
1.00009e-08
1.00009e-08
1.00008e-08
1.00007e-08
1.00007e-08
1.00007e-08
1.00007e-08
1.00007e-08
1.00006e-08
1.00006e-08
1.00006e-08
1.00006e-08
1.00006e-08
1.00005e-08
1.00005e-08
1.00005e-08
1.00005e-08
1.00005e-08
1.00005e-08
1.00004e-08
1.00004e-08
1.00004e-08
1.00004e-08
1.00004e-08
1.00004e-08
1.00004e-08
1.00003e-08
1.00003e-08
1.00003e-08
1.00003e-08
1.00003e-08
1.00003e-08
1.00003e-08
1.00003e-08
1.00002e-08
1.00002e-08
1.00002e-08
1.00002e-08
1.00002e-08
1.00002e-08
1.00002e-08
1.00002e-08
1.00002e-08
1.00001e-08
1.00001e-08
1.00001e-08
1.00001e-08
1.00001e-08
1.00001e-08
1.00001e-08
1.00001e-08
1.00001e-08
1.00001e-08
1.00001e-08
1e-08
1e-08
1e-08
1e-08
1e-08
1e-08
1e-08
9.99999e-09
9.99999e-09
9.99998e-09
9.99997e-09
9.99996e-09
9.99996e-09
9.99995e-09
9.99994e-09
9.99994e-09
9.99993e-09
9.99992e-09
9.99991e-09
9.99991e-09
9.9999e-09
9.99989e-09
9.99989e-09
9.99988e-09
9.99988e-09
9.99987e-09
9.99987e-09
9.99987e-09
9.99986e-09
9.99986e-09
9.99985e-09
9.99985e-09
9.99985e-09
9.99985e-09
9.99984e-09
9.99984e-09
9.99984e-09
9.99983e-09
9.99983e-09
9.99983e-09
9.99983e-09
9.99983e-09
9.99982e-09
9.99982e-09
9.99982e-09
9.99982e-09
9.99982e-09
9.99982e-09
9.99982e-09
9.99981e-09
9.99981e-09
9.99981e-09
9.99981e-09
9.99981e-09
9.99981e-09
9.99981e-09
9.99981e-09
9.99981e-09
9.9998e-09
9.9998e-09
9.9998e-09
9.9998e-09
9.9998e-09
9.9998e-09
9.9998e-09
9.9998e-09
9.9998e-09
9.99979e-09
9.99979e-09
9.99979e-09
9.99979e-09
9.99979e-09
9.99979e-09
9.99979e-09
9.99979e-09
9.99979e-09
9.99979e-09
9.99979e-09
9.99979e-09
9.99978e-09
9.99978e-09
9.99978e-09
9.99978e-09
9.99978e-09
9.99978e-09
9.99978e-09
9.99978e-09
9.99978e-09
9.99978e-09
9.99978e-09
9.99978e-09
9.99978e-09
9.99978e-09
9.99977e-09
9.99977e-09
9.99977e-09
9.99977e-09
9.99977e-09
9.99977e-09
9.99977e-09
9.99977e-09
9.99977e-09
9.99977e-09
9.99977e-09
9.99977e-09
9.99977e-09
9.99977e-09
9.99977e-09
9.99977e-09
9.99977e-09
9.99977e-09
9.99977e-09
9.99977e-09
9.99977e-09
9.99977e-09
9.99977e-09
9.99977e-09
9.99977e-09
9.99977e-09
9.99977e-09
9.99977e-09
9.99978e-09
9.99978e-09
9.99978e-09
9.99978e-09
9.99978e-09
9.99978e-09
9.99978e-09
9.99978e-09
9.99978e-09
9.99978e-09
9.99978e-09
9.99978e-09
9.99978e-09
9.99978e-09
9.99978e-09
9.99978e-09
9.99978e-09
9.99978e-09
9.99978e-09
9.99978e-09
9.99978e-09
9.99978e-09
9.99978e-09
9.99978e-09
9.99978e-09
9.99978e-09
9.99978e-09
9.99978e-09
9.99978e-09
9.99978e-09
9.99978e-09
9.99978e-09
9.99978e-09
9.99978e-09
9.99978e-09
9.99978e-09
9.99978e-09
9.99978e-09
9.99978e-09
9.99978e-09
9.99977e-09
9.99977e-09
9.99977e-09
9.99977e-09
9.99977e-09
9.99977e-09
9.99977e-09
9.99977e-09
9.99977e-09
9.99977e-09
9.99977e-09
9.99977e-09
9.99977e-09
9.99976e-09
9.99976e-09
9.99976e-09
9.99976e-09
9.99976e-09
9.99976e-09
9.99976e-09
9.99976e-09
9.99976e-09
9.99976e-09
9.99976e-09
9.99976e-09
9.99975e-09
9.99975e-09
9.99975e-09
9.99975e-09
9.99975e-09
9.99975e-09
9.99975e-09
9.99975e-09
9.99975e-09
9.99975e-09
9.99975e-09
9.99975e-09
9.99975e-09
9.99975e-09
9.99974e-09
9.99974e-09
9.99974e-09
9.99974e-09
9.99974e-09
9.99974e-09
9.99974e-09
9.99974e-09
9.99974e-09
9.99974e-09
9.99974e-09
9.99974e-09
9.99974e-09
9.99974e-09
9.99973e-09
9.99973e-09
9.99973e-09
9.99973e-09
9.99973e-09
9.99973e-09
9.99973e-09
9.99973e-09
9.99973e-09
9.99973e-09
9.99973e-09
9.99973e-09
9.99973e-09
9.99973e-09
9.99973e-09
9.99973e-09
9.99973e-09
9.99973e-09
9.99973e-09
9.99973e-09
9.99973e-09
9.99973e-09
9.99973e-09
9.99973e-09
9.99973e-09
9.99973e-09
9.99973e-09
9.99973e-09
9.99973e-09
9.99973e-09
9.99973e-09
9.99973e-09
9.99973e-09
9.99973e-09
9.99973e-09
9.99973e-09
9.99973e-09
9.99973e-09
9.99973e-09
9.99973e-09
9.99973e-09
9.99973e-09
9.99973e-09
9.99973e-09
9.99973e-09
9.99973e-09
9.99973e-09
9.99973e-09
9.99973e-09
9.99973e-09
9.99973e-09
9.99973e-09
9.99972e-09
9.99972e-09
9.99972e-09
9.99972e-09
9.99972e-09
9.99972e-09
9.99972e-09
9.99972e-09
9.99972e-09
9.99972e-09
9.99973e-09
9.99972e-09
9.99973e-09
9.99972e-09
9.99971e-09
9.9997e-09
9.9997e-09
9.99969e-09
9.99969e-09
9.9997e-09
9.99969e-09
9.99969e-09
9.99969e-09
9.99969e-09
9.99969e-09
9.99969e-09
9.99969e-09
9.99969e-09
9.99969e-09
9.99969e-09
9.99969e-09
9.99969e-09
9.99969e-09
9.99969e-09
9.99969e-09
9.99969e-09
9.99969e-09
9.9997e-09
9.9997e-09
9.9997e-09
9.9997e-09
9.9997e-09
9.99971e-09
9.99971e-09
9.99971e-09
9.99971e-09
9.99971e-09
9.99971e-09
9.99972e-09
9.99972e-09
9.99972e-09
9.99972e-09
9.99973e-09
9.99973e-09
9.99973e-09
9.99974e-09
9.99974e-09
9.99974e-09
9.99974e-09
9.99975e-09
9.99975e-09
9.99975e-09
9.99975e-09
9.99975e-09
9.99975e-09
9.99975e-09
9.99976e-09
9.99976e-09
9.99976e-09
9.99976e-09
9.99976e-09
9.99976e-09
9.99976e-09
9.99976e-09
9.99977e-09
9.99977e-09
9.99977e-09
9.99977e-09
9.99977e-09
9.99977e-09
9.99977e-09
9.99976e-09
9.99976e-09
9.99976e-09
9.99977e-09
9.99977e-09
9.99976e-09
9.99976e-09
9.99976e-09
9.99977e-09
9.99977e-09
9.99976e-09
9.99976e-09
9.99976e-09
9.99977e-09
9.99976e-09
9.99976e-09
9.99976e-09
9.99976e-09
9.99976e-09
9.99976e-09
9.99976e-09
9.99975e-09
1.00019e-08
1.00027e-08
1.00026e-08
1.00025e-08
1.00024e-08
1.00024e-08
1.00023e-08
1.00023e-08
1.00022e-08
1.00021e-08
1.0002e-08
1.0002e-08
1.00019e-08
1.00019e-08
1.00018e-08
1.00018e-08
1.00017e-08
1.00017e-08
1.00017e-08
1.00017e-08
1.00017e-08
1.00016e-08
1.00016e-08
1.00016e-08
1.00015e-08
1.00015e-08
1.00015e-08
1.00015e-08
1.00015e-08
1.00015e-08
1.00015e-08
1.00015e-08
1.00015e-08
1.00014e-08
1.00014e-08
1.00014e-08
1.00014e-08
1.00014e-08
1.00015e-08
1.00015e-08
1.00015e-08
1.00015e-08
1.00015e-08
1.00015e-08
1.00016e-08
1.00016e-08
1.00017e-08
1.00017e-08
1.00018e-08
1.00018e-08
1.00019e-08
1.00019e-08
1.0002e-08
1.0002e-08
1.0002e-08
1.00021e-08
1.00021e-08
1.0002e-08
1.0002e-08
1.0002e-08
1.0002e-08
1.00019e-08
1.00019e-08
1.00019e-08
1.00019e-08
1.00018e-08
1.00018e-08
1.00018e-08
1.00018e-08
1.00018e-08
1.00017e-08
1.00017e-08
1.00017e-08
1.00017e-08
1.00017e-08
1.00016e-08
1.00016e-08
1.00016e-08
1.00016e-08
1.00015e-08
1.00015e-08
1.00015e-08
1.00014e-08
1.00013e-08
1.00015e-08
1.00017e-08
1.00018e-08
1.00019e-08
1.00021e-08
1.00021e-08
1.00022e-08
1.00023e-08
1.00023e-08
1.00023e-08
1.0002e-08
1.00021e-08
1.00007e-08
1.00003e-08
1.00017e-08
1.00017e-08
1.00015e-08
1.00015e-08
1.00014e-08
1.00013e-08
1.00014e-08
1.00014e-08
1.00014e-08
1.00014e-08
1.00014e-08
1.00014e-08
1.00014e-08
1.00014e-08
1.00014e-08
1.00012e-08
1.00012e-08
1.00011e-08
1.0001e-08
1.0001e-08
1.00009e-08
1.00009e-08
1.00009e-08
1.00009e-08
1.00009e-08
1.00009e-08
1.00009e-08
1.00009e-08
1.00009e-08
1.00009e-08
1.00011e-08
1.00011e-08
1.00008e-08
1.00008e-08
1.00007e-08
1.00007e-08
1.00007e-08
1.00006e-08
1.00006e-08
1.00006e-08
1.00006e-08
1.00006e-08
1.00006e-08
1.00005e-08
1.00005e-08
1.00005e-08
1.00005e-08
1.00005e-08
1.00005e-08
1.00004e-08
1.00004e-08
1.00004e-08
1.00004e-08
1.00004e-08
1.00004e-08
1.00004e-08
1.00003e-08
1.00003e-08
1.00003e-08
1.00003e-08
1.00003e-08
1.00003e-08
1.00003e-08
1.00003e-08
1.00002e-08
1.00002e-08
1.00002e-08
1.00002e-08
1.00002e-08
1.00002e-08
1.00002e-08
1.00002e-08
1.00002e-08
1.00001e-08
1.00001e-08
1.00001e-08
1.00001e-08
1.00001e-08
1.00001e-08
1.00001e-08
1.00001e-08
1.00001e-08
1.00001e-08
1.00001e-08
1e-08
1e-08
1e-08
1e-08
1e-08
1e-08
1e-08
9.99999e-09
9.99998e-09
9.99997e-09
9.99997e-09
9.99996e-09
9.99996e-09
9.99995e-09
9.99994e-09
9.99993e-09
9.99992e-09
9.99991e-09
9.99991e-09
9.9999e-09
9.9999e-09
9.99989e-09
9.99989e-09
9.99988e-09
9.99988e-09
9.99987e-09
9.99987e-09
9.99986e-09
9.99986e-09
9.99985e-09
9.99985e-09
9.99985e-09
9.99985e-09
9.99984e-09
9.99984e-09
9.99984e-09
9.99983e-09
9.99983e-09
9.99983e-09
9.99983e-09
9.99982e-09
9.99982e-09
9.99982e-09
9.99982e-09
9.99982e-09
9.99982e-09
9.99981e-09
9.99981e-09
9.99981e-09
9.99981e-09
9.99981e-09
9.99981e-09
9.99981e-09
9.99981e-09
9.99981e-09
9.9998e-09
9.9998e-09
9.9998e-09
9.9998e-09
9.9998e-09
9.9998e-09
9.9998e-09
9.9998e-09
9.99979e-09
9.99979e-09
9.99979e-09
9.99979e-09
9.99979e-09
9.99979e-09
9.99979e-09
9.99979e-09
9.99979e-09
9.99979e-09