/*--------------------------------*- C++ -*----------------------------------*\
| =========                 |                                                 |
| \\      /  F ield         | OpenFOAM: The Open Source CFD Toolbox           |
|  \\    /   O peration     | Version:  v2006                                 |
|   \\  /    A nd           | Website:  www.openfoam.com                      |
|    \\/     M anipulation  |                                                 |
\*---------------------------------------------------------------------------*/
FoamFile
{
    version     2.0;
    format      ascii;
    class       volScalarField;
    location    "0.3";
    object      nut;
}
// * * * * * * * * * * * * * * * * * * * * * * * * * * * * * * * * * * * * * //

dimensions      [0 2 -1 0 0 0 0];


internalField   nonuniform List<scalar> 
33000
(
1.02306e-08
7.36322e-09
8.29561e-09
8.49673e-09
8.49048e-09
8.51087e-09
8.53681e-09
8.56617e-09
8.59897e-09
8.63542e-09
8.6753e-09
8.71854e-09
8.76537e-09
8.81588e-09
8.86961e-09
8.92709e-09
8.98837e-09
9.05373e-09
9.12332e-09
9.19722e-09
9.27527e-09
9.35635e-09
9.44153e-09
9.5308e-09
9.62413e-09
9.72161e-09
9.82332e-09
9.92804e-09
1.00365e-08
1.01497e-08
1.0268e-08
1.03914e-08
1.05201e-08
1.06537e-08
1.07904e-08
1.09324e-08
1.10799e-08
1.12332e-08
1.13917e-08
1.15537e-08
1.17214e-08
1.18952e-08
1.20729e-08
1.22551e-08
1.24415e-08
1.26271e-08
1.28172e-08
1.30123e-08
1.32083e-08
1.34098e-08
1.36173e-08
1.38308e-08
1.39147e-08
1.38778e-08
1.38414e-08
1.38053e-08
1.37697e-08
1.37344e-08
1.36995e-08
1.3665e-08
1.36307e-08
1.35967e-08
1.3563e-08
1.35294e-08
1.34959e-08
1.34624e-08
1.34289e-08
1.33952e-08
1.3361e-08
1.33262e-08
1.32902e-08
1.32525e-08
1.32121e-08
1.31672e-08
1.31152e-08
1.30518e-08
1.29629e-08
1.29512e-08
1.26164e-08
1.26365e-08
1.25683e-08
1.25787e-08
1.25743e-08
1.25644e-08
1.25689e-08
1.25655e-08
1.25549e-08
1.25477e-08
1.25419e-08
1.25372e-08
1.25315e-08
1.2527e-08
1.25219e-08
1.25165e-08
1.25112e-08
1.25057e-08
1.25002e-08
1.24941e-08
1.24892e-08
1.24809e-08
1.2476e-08
1.24702e-08
1.24652e-08
1.24601e-08
1.24549e-08
1.245e-08
1.24449e-08
1.24399e-08
1.2435e-08
1.24302e-08
1.24254e-08
1.24207e-08
1.2416e-08
1.24114e-08
1.24068e-08
1.24019e-08
1.23981e-08
1.23912e-08
1.23877e-08
1.23833e-08
1.23798e-08
1.23761e-08
1.23725e-08
1.23691e-08
1.23656e-08
1.23622e-08
1.23588e-08
1.23556e-08
1.23523e-08
1.23491e-08
1.2346e-08
1.2343e-08
1.234e-08
1.2337e-08
1.23342e-08
1.23313e-08
1.23286e-08
1.23259e-08
1.23232e-08
1.23206e-08
1.23181e-08
1.23156e-08
1.23132e-08
1.23108e-08
1.23085e-08
1.23062e-08
1.2304e-08
1.23018e-08
1.22997e-08
1.22976e-08
1.22956e-08
1.22936e-08
1.22916e-08
1.22897e-08
1.22879e-08
1.22861e-08
1.22843e-08
1.22825e-08
1.22808e-08
1.22792e-08
1.22776e-08
1.2276e-08
1.22744e-08
1.22729e-08
1.22715e-08
1.227e-08
1.22686e-08
1.22673e-08
1.22659e-08
1.22646e-08
1.22633e-08
1.22621e-08
1.22609e-08
1.22597e-08
1.22585e-08
1.22574e-08
1.22563e-08
1.22552e-08
1.22542e-08
1.22531e-08
1.22521e-08
1.22512e-08
1.22502e-08
1.22493e-08
1.22484e-08
1.22475e-08
1.22467e-08
1.22458e-08
1.2245e-08
1.22442e-08
1.22435e-08
1.22427e-08
1.2242e-08
1.22413e-08
1.22406e-08
1.22399e-08
1.22393e-08
1.22386e-08
1.2238e-08
1.22374e-08
1.22368e-08
1.22363e-08
1.22357e-08
1.22352e-08
1.22347e-08
1.22342e-08
1.22337e-08
1.22332e-08
1.22327e-08
1.22323e-08
1.22318e-08
1.22314e-08
1.2231e-08
1.22306e-08
1.22302e-08
1.22298e-08
1.22294e-08
1.22291e-08
1.22287e-08
1.22284e-08
1.2228e-08
1.22277e-08
1.22274e-08
1.2227e-08
1.22267e-08
1.22264e-08
1.22261e-08
1.22258e-08
1.22256e-08
1.22253e-08
1.2225e-08
1.22247e-08
1.22245e-08
1.22242e-08
1.2224e-08
1.22238e-08
1.22235e-08
1.22233e-08
1.22231e-08
1.22229e-08
1.22226e-08
1.22224e-08
1.22222e-08
1.2222e-08
1.22219e-08
1.22217e-08
1.22215e-08
1.22213e-08
1.22211e-08
1.22209e-08
1.22208e-08
1.22206e-08
1.22204e-08
1.22203e-08
1.22201e-08
1.222e-08
1.22198e-08
1.22197e-08
1.22195e-08
1.22194e-08
1.22193e-08
1.22191e-08
1.2219e-08
1.22189e-08
1.22188e-08
1.22187e-08
1.22185e-08
1.22184e-08
1.22183e-08
1.22182e-08
1.22181e-08
1.2218e-08
1.2218e-08
1.22179e-08
1.22178e-08
1.22177e-08
1.22176e-08
1.22176e-08
1.22175e-08
1.22174e-08
1.22174e-08
1.22173e-08
1.22172e-08
1.22171e-08
1.22171e-08
1.2217e-08
1.22169e-08
1.22169e-08
1.22168e-08
1.22168e-08
1.22167e-08
1.22167e-08
1.22166e-08
1.22166e-08
1.22165e-08
1.22165e-08
1.22164e-08
1.22164e-08
1.22164e-08
1.22163e-08
1.22163e-08
1.22162e-08
1.22162e-08
1.22161e-08
1.22161e-08
1.22161e-08
1.2216e-08
1.2216e-08
1.22159e-08
1.22159e-08
1.22159e-08
1.22159e-08
1.22158e-08
1.22158e-08
1.22158e-08
1.22157e-08
1.22157e-08
1.22156e-08
1.22156e-08
1.22156e-08
1.22156e-08
1.22155e-08
1.22155e-08
1.22155e-08
1.22155e-08
1.22154e-08
1.22154e-08
1.22154e-08
1.22154e-08
1.22154e-08
1.22153e-08
1.22153e-08
1.22153e-08
1.22153e-08
1.22153e-08
1.22153e-08
1.22153e-08
1.22152e-08
1.22152e-08
1.22152e-08
1.22152e-08
1.22152e-08
1.22152e-08
1.22152e-08
1.22152e-08
1.22152e-08
1.22151e-08
1.22151e-08
1.22151e-08
1.22151e-08
1.22151e-08
1.22151e-08
1.22151e-08
1.22151e-08
1.22151e-08
1.2215e-08
1.2215e-08
1.2215e-08
1.2215e-08
1.2215e-08
1.2215e-08
1.2215e-08
1.2215e-08
1.2215e-08
1.2215e-08
1.2215e-08
1.2215e-08
1.2215e-08
1.2215e-08
1.2215e-08
1.2215e-08
1.2215e-08
1.2215e-08
1.22151e-08
1.22151e-08
1.22151e-08
1.22151e-08
1.22151e-08
1.22151e-08
1.22151e-08
1.22151e-08
1.22151e-08
1.22151e-08
1.22151e-08
1.22151e-08
1.22151e-08
1.22151e-08
1.22151e-08
1.22151e-08
1.22151e-08
1.22151e-08
1.22151e-08
1.22151e-08
1.22151e-08
1.22151e-08
1.22151e-08
1.2215e-08
1.2215e-08
1.2215e-08
1.2215e-08
1.2215e-08
1.2215e-08
1.22149e-08
1.22149e-08
1.22149e-08
1.22149e-08
1.22148e-08
1.22148e-08
1.22148e-08
1.22148e-08
1.22148e-08
1.22147e-08
1.22147e-08
1.22147e-08
1.22147e-08
1.22147e-08
1.22147e-08
1.22147e-08
1.22147e-08
1.22147e-08
1.22147e-08
1.22147e-08
1.22147e-08
1.22147e-08
1.22147e-08
1.22147e-08
1.22147e-08
1.22147e-08
1.22147e-08
1.22147e-08
1.22147e-08
1.22147e-08
1.22147e-08
1.22147e-08
1.22147e-08
1.22147e-08
1.22146e-08
1.22146e-08
1.22146e-08
1.22146e-08
1.22146e-08
1.22146e-08
1.22146e-08
1.22146e-08
1.22146e-08
1.22146e-08
1.22147e-08
1.22147e-08
1.22147e-08
1.22147e-08
1.22147e-08
1.22147e-08
1.22148e-08
1.22148e-08
1.22148e-08
1.22148e-08
1.22148e-08
1.22148e-08
1.22148e-08
1.22148e-08
1.22148e-08
1.22148e-08
1.22148e-08
1.22148e-08
1.22148e-08
1.22148e-08
1.22148e-08
1.22148e-08
1.22147e-08
1.2215e-08
1.22149e-08
1.22149e-08
1.22149e-08
1.22148e-08
1.22148e-08
1.22148e-08
1.22148e-08
1.22148e-08
1.22148e-08
1.22148e-08
1.22149e-08
1.22149e-08
1.22149e-08
1.2215e-08
1.2215e-08
1.22151e-08
1.22151e-08
1.22152e-08
1.22152e-08
1.22153e-08
1.22153e-08
1.22154e-08
1.22154e-08
1.22155e-08
1.22155e-08
1.22155e-08
1.22155e-08
1.22155e-08
1.22156e-08
1.22156e-08
1.22156e-08
1.22156e-08
1.22156e-08
1.22156e-08
1.22156e-08
1.22156e-08
1.22156e-08
1.22156e-08
1.22156e-08
1.22156e-08
1.22156e-08
1.22155e-08
1.22155e-08
1.22155e-08
1.22154e-08
1.22154e-08
1.22153e-08
1.22153e-08
1.22153e-08
1.22152e-08
1.22152e-08
1.22152e-08
1.22151e-08
1.22151e-08
1.22151e-08
1.2215e-08
1.2215e-08
1.22149e-08
1.22149e-08
1.22149e-08
1.22149e-08
1.22148e-08
1.22148e-08
1.22147e-08
1.22147e-08
1.22147e-08
1.22147e-08
1.22147e-08
1.22147e-08
1.22147e-08
1.22147e-08
1.22147e-08
1.22147e-08
1.22147e-08
1.22147e-08
1.22146e-08
1.22146e-08
1.22146e-08
1.22146e-08
1.22195e-08
2.88099e-08
2.24078e-08
6.30577e-08
3.38838e-07
7.62899e-07
6.00485e-07
5.45305e-07
5.0563e-07
4.70285e-07
4.39458e-07
4.12764e-07
3.89153e-07
3.67873e-07
3.48836e-07
3.32106e-07
3.17485e-07
3.04323e-07
2.92333e-07
2.81587e-07
2.7209e-07
2.63697e-07
2.56388e-07
2.50023e-07
2.44423e-07
2.39449e-07
2.34892e-07
2.30742e-07
2.26931e-07
2.23381e-07
2.20076e-07
2.1705e-07
2.14275e-07
2.11794e-07
2.09611e-07
2.07698e-07
2.06059e-07
2.04672e-07
2.03518e-07
2.02595e-07
2.01911e-07
2.01468e-07
2.01266e-07
2.01299e-07
2.01563e-07
2.02036e-07
2.02682e-07
2.03466e-07
2.04363e-07
2.05366e-07
2.0647e-07
2.07659e-07
2.08912e-07
2.10203e-07
2.11522e-07
2.12864e-07
2.14214e-07
2.15525e-07
2.16741e-07
2.17778e-07
2.18598e-07
2.19203e-07
2.19549e-07
2.1954e-07
2.19084e-07
2.18141e-07
2.16663e-07
2.14541e-07
2.11561e-07
2.07527e-07
2.02309e-07
1.95734e-07
1.87582e-07
1.77701e-07
1.6581e-07
1.51036e-07
1.31358e-07
9.99106e-08
1.01587e-07
8.52119e-08
8.3147e-08
3.85531e-08
4.06504e-08
8.58626e-08
8.86046e-08
3.26799e-07
2.39146e-07
8.56156e-07
2.91447e-06
1.062e-06
9.76579e-07
9.02675e-07
1.2016e-06
1.09587e-06
1.25412e-06
1.31737e-06
1.15384e-06
1.1395e-06
1.13663e-06
1.16621e-06
1.11113e-06
1.08183e-06
9.09722e-07
9.13271e-07
1.07857e-06
1.0788e-06
1.15723e-06
1.16901e-06
1.1942e-06
1.24911e-06
1.27105e-06
1.25467e-06
1.27022e-06
1.28945e-06
1.30476e-06
1.32792e-06
1.35756e-06
1.45402e-06
1.3815e-06
1.3545e-06
1.07828e-06
1.09464e-06
1.41241e-06
1.42946e-06
1.60001e-06
1.63843e-06
1.73886e-06
1.78384e-06
1.74885e-06
1.77045e-06
1.80469e-06
1.83021e-06
1.86201e-06
1.89347e-06
1.92291e-06
1.95683e-06
1.99291e-06
2.02918e-06
2.06497e-06
2.10272e-06
2.14238e-06
2.18337e-06
2.22372e-06
2.26363e-06
2.30589e-06
2.35148e-06
2.39768e-06
2.44311e-06
2.4911e-06
2.54166e-06
2.5913e-06
2.64119e-06
2.69483e-06
2.75098e-06
2.80708e-06
2.86573e-06
2.93007e-06
2.99729e-06
3.06327e-06
3.12927e-06
3.19753e-06
3.26673e-06
3.33552e-06
3.40672e-06
3.4838e-06
3.56702e-06
3.65369e-06
3.74166e-06
3.8309e-06
3.92044e-06
3.92645e-06
3.92821e-06
3.93009e-06
3.93177e-06
3.93329e-06
3.93492e-06
3.93661e-06
3.93812e-06
3.93952e-06
3.94099e-06
3.94248e-06
3.94385e-06
3.94518e-06
3.94662e-06
3.94809e-06
3.94945e-06
3.95071e-06
3.95197e-06
3.95324e-06
3.95445e-06
3.95559e-06
3.95675e-06
3.95796e-06
3.95918e-06
3.96032e-06
3.96138e-06
3.96242e-06
3.96343e-06
3.9644e-06
3.96533e-06
3.96623e-06
3.96711e-06
3.96795e-06
3.96878e-06
3.9696e-06
3.97041e-06
3.97121e-06
3.97203e-06
3.97284e-06
3.97364e-06
3.97447e-06
3.97526e-06
3.97593e-06
3.97648e-06
3.97703e-06
3.97758e-06
3.97808e-06
3.97851e-06
3.979e-06
3.97956e-06
3.9801e-06
3.98055e-06
3.98099e-06
3.98146e-06
3.98189e-06
3.98221e-06
3.98252e-06
3.98289e-06
3.9833e-06
3.98369e-06
3.98407e-06
3.98445e-06
3.98483e-06
3.98519e-06
3.98553e-06
3.98587e-06
3.98618e-06
3.98645e-06
3.9867e-06
3.98701e-06
3.98736e-06
3.98771e-06
3.98802e-06
3.98828e-06
3.98849e-06
3.98867e-06
3.98884e-06
3.98905e-06
3.98928e-06
3.98946e-06
3.98958e-06
3.98971e-06
3.98993e-06
3.99022e-06
3.99047e-06
3.9906e-06
3.9907e-06
3.99088e-06
3.99117e-06
3.99146e-06
3.99166e-06
3.99176e-06
3.99183e-06
3.99192e-06
3.99202e-06
3.99213e-06
3.99227e-06
3.99241e-06
3.99255e-06
3.99268e-06
3.99285e-06
3.99304e-06
3.99317e-06
3.99321e-06
3.99324e-06
3.99326e-06
3.99328e-06
3.99329e-06
3.9933e-06
3.99331e-06
3.99331e-06
3.9933e-06
3.99331e-06
3.99332e-06
3.99336e-06
3.9934e-06
3.99343e-06
3.99347e-06
3.9935e-06
3.99354e-06
3.99359e-06
3.99363e-06
3.99366e-06
3.9937e-06
3.99371e-06
3.99372e-06
3.99372e-06
3.99371e-06
3.99371e-06
3.99372e-06
3.99373e-06
3.99373e-06
3.99374e-06
3.99375e-06
3.99378e-06
3.99381e-06
3.99386e-06
3.9939e-06
3.99393e-06
3.99396e-06
3.99397e-06
3.99397e-06
3.99396e-06
3.99394e-06
3.99392e-06
3.99391e-06
3.9939e-06
3.9939e-06
3.99392e-06
3.99395e-06
3.99398e-06
3.99402e-06
3.99406e-06
3.99411e-06
3.99416e-06
3.99421e-06
3.99423e-06
3.99422e-06
3.9942e-06
3.99417e-06
3.99417e-06
3.99418e-06
3.9942e-06
3.99423e-06
3.99428e-06
3.99436e-06
3.99444e-06
3.99451e-06
3.99454e-06
3.99456e-06
3.99457e-06
3.99457e-06
3.99456e-06
3.99453e-06
3.99452e-06
3.99453e-06
3.99455e-06
3.99459e-06
3.99463e-06
3.99469e-06
3.99474e-06
3.99478e-06
3.9948e-06
3.99481e-06
3.9948e-06
3.99478e-06
3.99477e-06
3.99478e-06
3.99481e-06
3.99485e-06
3.99489e-06
3.99495e-06
3.995e-06
3.99503e-06
3.99504e-06
3.99503e-06
3.99501e-06
3.995e-06
3.995e-06
3.99501e-06
3.99504e-06
3.99509e-06
3.99515e-06
3.99519e-06
3.99522e-06
3.99524e-06
3.99525e-06
3.99527e-06
3.99528e-06
3.99529e-06
3.99532e-06
3.99538e-06
3.99544e-06
3.99548e-06
3.9955e-06
3.99549e-06
3.99547e-06
3.99545e-06
3.99544e-06
3.99545e-06
3.99549e-06
3.99552e-06
3.99556e-06
3.99557e-06
3.99556e-06
3.99553e-06
3.9955e-06
3.99547e-06
3.99548e-06
3.99551e-06
3.99557e-06
3.99562e-06
3.99564e-06
3.99565e-06
3.99565e-06
3.99565e-06
3.99566e-06
3.99569e-06
3.99573e-06
3.99576e-06
3.99576e-06
3.99575e-06
3.99574e-06
3.99576e-06
3.99579e-06
3.99583e-06
3.99585e-06
3.99588e-06
3.99589e-06
3.99589e-06
3.99591e-06
3.99594e-06
3.99591e-06
3.99578e-06
3.99567e-06
3.99557e-06
3.99559e-06
3.99565e-06
3.99563e-06
3.99559e-06
3.99549e-06
3.99551e-06
3.99556e-06
3.99568e-06
3.99567e-06
3.99558e-06
3.99541e-06
3.99527e-06
3.9953e-06
3.99521e-06
3.99539e-06
3.9952e-06
3.9949e-06
3.99487e-06
3.99487e-06
3.99502e-06
3.9949e-06
3.99488e-06
3.99505e-06
3.99511e-06
3.99538e-06
3.99503e-06
3.99528e-06
3.99495e-06
3.99493e-06
3.99475e-06
3.99494e-06
3.99546e-06
3.99498e-06
3.9955e-06
3.9958e-06
3.99529e-06
3.99552e-06
3.99552e-06
3.9956e-06
3.99543e-06
3.99612e-06
3.99565e-06
3.99436e-06
3.99371e-06
3.9922e-06
3.99333e-06
3.99414e-06
3.99419e-06
3.99445e-06
3.99467e-06
3.99469e-06
3.99464e-06
3.99462e-06
3.99462e-06
3.99463e-06
3.99475e-06
3.99502e-06
3.99528e-06
3.99538e-06
3.99537e-06
3.99537e-06
3.99546e-06
3.99562e-06
3.99576e-06
3.99583e-06
3.9958e-06
3.99569e-06
3.99551e-06
3.99527e-06
3.99499e-06
3.99482e-06
3.99474e-06
3.99474e-06
3.99486e-06
3.99514e-06
3.99555e-06
3.99603e-06
3.99609e-06
3.99611e-06
3.99612e-06
3.99613e-06
3.99613e-06
3.99612e-06
3.99612e-06
3.99612e-06
3.99611e-06
3.99608e-06
3.99596e-06
3.99577e-06
3.99562e-06
3.99553e-06
3.99551e-06
3.99556e-06
3.99566e-06
3.99576e-06
3.99588e-06
3.99595e-06
3.99589e-06
3.99569e-06
3.99545e-06
3.99529e-06
3.99542e-06
3.9957e-06
3.99585e-06
3.99557e-06
3.99496e-06
3.99442e-06
3.9946e-06
3.9951e-06
3.99532e-06
3.99491e-06
3.9944e-06
3.99465e-06
3.99544e-06
3.99575e-06
3.9953e-06
3.99516e-06
3.99589e-06
3.99615e-06
3.99544e-06
3.99477e-06
3.99494e-06
3.99427e-06
3.99416e-06
4.02261e-06
2.20523e-08
2.2394e-08
6.27162e-08
3.34618e-07
7.35443e-07
5.79522e-07
5.26364e-07
4.88641e-07
4.54857e-07
4.25239e-07
3.99918e-07
3.78231e-07
3.59052e-07
3.41864e-07
3.26665e-07
3.13192e-07
3.01264e-07
2.90461e-07
2.80795e-07
2.72201e-07
2.64639e-07
2.58045e-07
2.52282e-07
2.47176e-07
2.42602e-07
2.38507e-07
2.34752e-07
2.31282e-07
2.28058e-07
2.25062e-07
2.223e-07
2.19752e-07
2.17409e-07
2.15253e-07
2.13303e-07
2.11564e-07
2.10026e-07
2.08656e-07
2.07446e-07
2.06419e-07
2.05612e-07
2.05049e-07
2.04734e-07
2.04653e-07
2.04767e-07
2.0506e-07
2.05539e-07
2.06203e-07
2.07043e-07
2.08031e-07
2.09128e-07
2.10336e-07
2.11624e-07
2.13005e-07
2.14462e-07
2.15948e-07
2.17365e-07
2.18677e-07
2.19818e-07
2.208e-07
2.21605e-07
2.22176e-07
2.22394e-07
2.22238e-07
2.21758e-07
2.20964e-07
2.19741e-07
2.17989e-07
2.15796e-07
2.13292e-07
2.10424e-07
2.07228e-07
2.04227e-07
2.02298e-07
2.03189e-07
2.11041e-07
2.38287e-07
3.3049e-07
3.09896e-07
1.28866e-07
1.11756e-07
7.95434e-08
8.04874e-08
3.77762e-08
3.94238e-08
7.19599e-08
8.57641e-08
1.09793e-07
3.85353e-07
2.82965e-07
4.47642e-06
1.45455e-06
9.82333e-07
9.03214e-07
1.12397e-06
1.04355e-06
1.20183e-06
1.2884e-06
1.19076e-06
1.17883e-06
1.13739e-06
1.12005e-06
1.06641e-06
1.07107e-06
9.17233e-07
9.24878e-07
1.08453e-06
1.0873e-06
1.15461e-06
1.21755e-06
1.24528e-06
1.30035e-06
1.33137e-06
1.32368e-06
1.35571e-06
1.40599e-06
1.50155e-06
1.52265e-06
1.46688e-06
1.46717e-06
1.3746e-06
1.38805e-06
1.12261e-06
1.13859e-06
1.45587e-06
1.47682e-06
1.66294e-06
1.7047e-06
1.79709e-06
1.84368e-06
1.81322e-06
1.83654e-06
1.87468e-06
1.90353e-06
1.93719e-06
1.97518e-06
2.01335e-06
2.04948e-06
2.08766e-06
2.12462e-06
2.16152e-06
2.20119e-06
2.24267e-06
2.28465e-06
2.32828e-06
2.37308e-06
2.41834e-06
2.46467e-06
2.51206e-06
2.5595e-06
2.60819e-06
2.66093e-06
2.71784e-06
2.77552e-06
2.83334e-06
2.89451e-06
2.95963e-06
3.02426e-06
3.08671e-06
3.1501e-06
3.21704e-06
3.28668e-06
3.35811e-06
3.433e-06
3.51348e-06
3.59775e-06
3.68153e-06
3.76515e-06
3.85122e-06
3.93894e-06
4.02866e-06
4.12338e-06
4.22438e-06
4.33015e-06
4.44012e-06
4.55439e-06
4.66917e-06
4.78069e-06
4.89407e-06
5.01641e-06
5.14487e-06
5.27425e-06
5.41038e-06
5.56073e-06
5.71894e-06
5.87462e-06
6.0306e-06
6.19407e-06
6.36015e-06
6.5204e-06
6.68118e-06
6.85983e-06
7.06141e-06
7.27602e-06
7.4992e-06
7.73563e-06
7.9783e-06
8.21005e-06
8.43403e-06
8.67347e-06
8.93699e-06
9.21701e-06
9.5155e-06
9.84002e-06
9.96832e-06
9.96834e-06
9.96836e-06
9.96838e-06
9.9684e-06
9.96842e-06
9.96844e-06
9.96846e-06
9.96847e-06
9.96848e-06
9.9685e-06
9.96851e-06
9.96852e-06
9.96853e-06
9.96855e-06
9.96856e-06
9.96857e-06
9.96858e-06
9.96859e-06
9.96861e-06
9.96861e-06
9.96862e-06
9.96863e-06
9.96864e-06
9.96865e-06
9.96866e-06
9.96867e-06
9.96868e-06
9.96869e-06
9.9687e-06
9.96871e-06
9.96872e-06
9.96872e-06
9.96873e-06
9.96874e-06
9.96875e-06
9.96875e-06
9.96876e-06
9.96877e-06
9.96877e-06
9.96878e-06
9.96878e-06
9.96878e-06
9.96879e-06
9.96879e-06
9.9688e-06
9.9688e-06
9.96881e-06
9.96881e-06
9.96882e-06
9.96882e-06
9.96882e-06
9.96883e-06
9.96883e-06
9.96883e-06
9.96884e-06
9.96884e-06
9.96884e-06
9.96884e-06
9.96884e-06
9.96884e-06
9.96884e-06
9.96884e-06
9.96885e-06
9.96885e-06
9.96885e-06
9.96885e-06
9.96885e-06
9.96885e-06
9.96886e-06
9.96886e-06
9.96886e-06
9.96886e-06
9.96886e-06
9.96886e-06
9.96886e-06
9.96886e-06
9.96886e-06
9.96886e-06
9.96886e-06
9.96886e-06
9.96886e-06
9.96886e-06
9.96886e-06
9.96886e-06
9.96886e-06
9.96887e-06
9.96887e-06
9.96887e-06
9.96887e-06
9.96887e-06
9.96887e-06
9.96887e-06
9.96887e-06
9.96887e-06
9.96887e-06
9.96887e-06
9.96887e-06
9.96887e-06
9.96887e-06
9.96887e-06
9.96887e-06
9.96887e-06
9.96887e-06
9.96887e-06
9.96887e-06
9.96887e-06
9.96887e-06
9.96887e-06
9.96887e-06
9.96887e-06
9.96887e-06
9.96887e-06
9.96887e-06
9.96887e-06
9.96887e-06
9.96888e-06
9.96888e-06
9.96888e-06
9.96888e-06
9.96888e-06
9.96888e-06
9.96888e-06
9.96888e-06
9.96888e-06
9.96888e-06
9.96888e-06
9.96888e-06
9.96888e-06
9.96888e-06
9.96888e-06
9.96889e-06
9.96889e-06
9.96889e-06
9.96889e-06
9.96889e-06
9.96889e-06
9.96889e-06
9.96889e-06
9.96889e-06
9.96889e-06
9.96889e-06
9.96889e-06
9.96889e-06
9.96889e-06
9.96889e-06
9.9689e-06
9.9689e-06
9.9689e-06
9.9689e-06
9.9689e-06
9.9689e-06
9.9689e-06
9.9689e-06
9.9689e-06
9.9689e-06
9.9689e-06
9.9689e-06
9.9689e-06
9.9689e-06
9.9689e-06
9.9689e-06
9.9689e-06
9.9689e-06
9.9689e-06
9.9689e-06
9.9689e-06
9.96891e-06
9.96891e-06
9.96891e-06
9.96891e-06
9.96891e-06
9.96891e-06
9.96891e-06
9.96891e-06
9.96891e-06
9.96891e-06
9.96891e-06
9.96891e-06
9.96891e-06
9.96891e-06
9.96891e-06
9.96891e-06
9.96891e-06
9.96892e-06
9.96892e-06
9.96892e-06
9.96892e-06
9.96892e-06
9.96892e-06
9.96892e-06
9.96892e-06
9.96892e-06
9.96892e-06
9.96892e-06
9.96892e-06
9.96892e-06
9.96892e-06
9.96892e-06
9.96892e-06
9.96892e-06
9.96892e-06
9.96892e-06
9.96892e-06
9.96892e-06
9.96892e-06
9.96892e-06
9.96892e-06
9.96892e-06
9.96892e-06
9.96893e-06
9.96893e-06
9.96893e-06
9.96893e-06
9.96893e-06
9.96893e-06
9.96893e-06
9.96893e-06
9.96892e-06
9.96892e-06
9.96892e-06
9.96892e-06
9.96892e-06
9.96892e-06
9.96892e-06
9.96891e-06
9.96891e-06
9.96892e-06
9.96892e-06
9.96892e-06
9.96892e-06
9.96891e-06
9.96891e-06
9.96891e-06
9.96891e-06
9.96891e-06
9.9689e-06
9.9689e-06
9.9689e-06
9.9689e-06
9.9689e-06
9.9689e-06
9.9689e-06
9.9689e-06
9.9689e-06
9.9689e-06
9.9689e-06
9.9689e-06
9.9689e-06
9.96889e-06
9.96889e-06
9.9689e-06
9.96891e-06
9.9689e-06
9.9689e-06
9.96891e-06
9.9689e-06
9.96891e-06
9.96892e-06
9.96891e-06
9.96889e-06
9.96888e-06
9.96885e-06
9.96885e-06
9.96885e-06
9.96882e-06
9.96884e-06
9.96886e-06
9.96885e-06
9.96886e-06
9.96886e-06
9.96886e-06
9.96886e-06
9.96886e-06
9.96886e-06
9.96886e-06
9.96887e-06
9.96887e-06
9.96888e-06
9.96888e-06
9.96888e-06
9.96888e-06
9.96889e-06
9.9689e-06
9.9689e-06
9.96891e-06
9.96891e-06
9.9689e-06
9.9689e-06
9.9689e-06
9.96889e-06
9.96889e-06
9.9689e-06
9.9689e-06
9.9689e-06
9.96891e-06
9.96892e-06
9.96893e-06
9.96893e-06
9.96893e-06
9.96893e-06
9.96894e-06
9.96894e-06
9.96894e-06
9.96894e-06
9.96894e-06
9.96893e-06
9.96893e-06
9.96893e-06
9.96892e-06
9.96892e-06
9.96892e-06
9.96892e-06
9.96892e-06
9.96892e-06
9.96892e-06
9.96892e-06
9.96893e-06
9.96892e-06
9.96892e-06
9.96891e-06
9.96891e-06
9.96891e-06
9.96892e-06
9.96892e-06
9.96891e-06
9.9689e-06
9.96889e-06
9.9689e-06
9.96891e-06
9.96891e-06
9.9689e-06
9.96889e-06
9.9689e-06
9.96892e-06
9.96892e-06
9.96891e-06
9.96891e-06
9.96892e-06
9.96892e-06
9.96891e-06
9.9689e-06
9.9689e-06
9.96889e-06
9.96889e-06
9.96939e-06
1.73505e-08
2.23247e-08
6.23693e-08
3.21569e-07
6.66452e-07
5.40401e-07
4.95632e-07
4.6268e-07
4.32834e-07
4.07146e-07
3.8533e-07
3.66384e-07
3.49359e-07
3.34022e-07
3.20538e-07
3.08589e-07
2.97961e-07
2.88346e-07
2.79634e-07
2.71794e-07
2.64906e-07
2.58863e-07
2.53544e-07
2.48769e-07
2.44425e-07
2.40535e-07
2.36898e-07
2.33491e-07
2.30336e-07
2.274e-07
2.24636e-07
2.22081e-07
2.1971e-07
2.1752e-07
2.15571e-07
2.13827e-07
2.12251e-07
2.10836e-07
2.09601e-07
2.086e-07
2.07874e-07
2.07431e-07
2.07249e-07
2.07308e-07
2.07551e-07
2.07975e-07
2.086e-07
2.09406e-07
2.10365e-07
2.1144e-07
2.12615e-07
2.13926e-07
2.15319e-07
2.16788e-07
2.18314e-07
2.19847e-07
2.21302e-07
2.22666e-07
2.23933e-07
2.25126e-07
2.26194e-07
2.27065e-07
2.27684e-07
2.28111e-07
2.28422e-07
2.28628e-07
2.28648e-07
2.28539e-07
2.28516e-07
2.28759e-07
2.29397e-07
2.30726e-07
2.33317e-07
2.38308e-07
2.47702e-07
2.64626e-07
2.95166e-07
3.56757e-07
4.61723e-07
6.54807e-07
7.03e-07
4.04967e-07
1.53481e-07
1.28256e-07
9.20323e-08
7.9104e-08
6.43601e-08
3.96121e-08
4.11981e-08
8.55825e-08
9.04593e-08
3.6481e-07
2.77509e-07
2.94576e-06
1.93587e-06
8.86405e-07
8.43732e-07
1.10206e-06
1.04757e-06
1.19485e-06
1.2772e-06
1.18468e-06
1.17231e-06
1.15023e-06
1.13699e-06
1.11386e-06
1.07416e-06
1.08521e-06
9.61614e-07
9.77867e-07
1.15347e-06
1.1763e-06
1.29032e-06
1.32929e-06
1.39847e-06
1.44405e-06
1.45055e-06
1.48011e-06
1.51122e-06
1.58693e-06
1.59217e-06
1.54132e-06
1.53894e-06
1.43158e-06
1.44609e-06
1.18064e-06
1.1986e-06
1.52144e-06
1.54411e-06
1.74968e-06
1.79511e-06
1.88072e-06
1.92659e-06
1.89667e-06
1.91726e-06
1.95834e-06
2.00858e-06
2.0459e-06
2.08705e-06
2.12584e-06
2.16023e-06
2.19878e-06
2.23929e-06
2.27956e-06
2.32185e-06
2.36357e-06
2.40531e-06
2.44981e-06
2.49791e-06
2.54694e-06
2.59582e-06
2.64714e-06
2.70323e-06
2.76035e-06
2.81541e-06
2.87125e-06
2.93054e-06
2.99062e-06
3.05049e-06
3.11388e-06
3.18262e-06
3.25332e-06
3.32284e-06
3.39294e-06
3.46687e-06
3.54372e-06
3.61986e-06
3.69928e-06
3.78704e-06
3.87812e-06
3.96658e-06
4.05724e-06
4.15637e-06
4.2585e-06
4.35821e-06
4.46216e-06
4.57512e-06
4.69081e-06
4.80672e-06
4.93068e-06
5.06408e-06
5.19794e-06
5.33136e-06
5.47214e-06
5.61799e-06
5.7611e-06
5.90646e-06
6.0645e-06
6.2321e-06
6.39899e-06
6.56806e-06
6.75057e-06
6.94535e-06
7.13728e-06
7.32656e-06
7.53482e-06
7.76813e-06
8.00679e-06
8.24228e-06
8.49237e-06
8.76283e-06
9.03714e-06
9.31304e-06
9.6048e-06
9.90621e-06
9.99995e-06
9.99995e-06
9.99994e-06
9.99994e-06
9.99994e-06
9.99994e-06
9.99994e-06
9.99993e-06
9.99993e-06
9.99993e-06
9.99993e-06
9.99993e-06
9.99993e-06
9.99993e-06
9.99993e-06
9.99993e-06
9.99992e-06
9.99992e-06
9.99992e-06
9.99992e-06
9.99992e-06
9.99992e-06
9.99992e-06
9.99992e-06
9.99992e-06
9.99992e-06
9.99992e-06
9.99992e-06
9.99992e-06
9.99992e-06
9.99992e-06
9.99992e-06
9.99992e-06
9.99991e-06
9.99991e-06
9.99991e-06
9.99991e-06
9.99991e-06
9.99991e-06
9.99991e-06
9.99991e-06
9.99991e-06
9.99991e-06
9.99991e-06
9.99991e-06
9.99991e-06
9.99991e-06
9.99991e-06
9.99991e-06
9.99991e-06
9.99991e-06
9.99991e-06
9.99991e-06
9.99991e-06
9.99991e-06
9.99991e-06
9.99991e-06
9.99991e-06
9.99991e-06
9.99991e-06
9.99991e-06
9.99991e-06
9.99991e-06
9.99991e-06
9.99991e-06
9.99991e-06
9.99991e-06
9.99991e-06
9.99991e-06
9.99991e-06
9.99991e-06
9.99991e-06
9.99991e-06
9.99991e-06
9.99991e-06
9.99991e-06
9.99991e-06
9.99991e-06
9.99991e-06
9.99991e-06
9.99991e-06
9.99991e-06
9.99991e-06
9.99991e-06
9.99991e-06
9.99991e-06
9.99991e-06
9.99991e-06
9.99991e-06
9.99991e-06
9.99991e-06
9.99991e-06
9.99991e-06
9.99991e-06
9.99991e-06
9.99991e-06
9.99991e-06
9.99991e-06
9.99991e-06
9.99991e-06
9.99991e-06
9.99991e-06
9.99991e-06
9.99991e-06
9.99991e-06
9.99991e-06
9.99991e-06
9.99991e-06
9.99991e-06
9.99991e-06
9.99991e-06
9.99991e-06
9.99991e-06
9.99991e-06
9.99991e-06
9.99991e-06
9.99991e-06
9.99991e-06
9.99991e-06
9.99991e-06
9.99991e-06
9.99991e-06
9.99991e-06
9.99991e-06
9.99991e-06
9.99991e-06
9.99991e-06
9.99991e-06
9.99991e-06
9.99991e-06
9.99991e-06
9.99991e-06
9.99991e-06
9.99991e-06
9.99991e-06
9.99991e-06
9.99991e-06
9.99991e-06
9.99991e-06
9.99991e-06
9.99991e-06
9.99991e-06
9.99991e-06
9.99991e-06
9.99991e-06
9.99991e-06
9.9999e-06
9.9999e-06
9.9999e-06
9.9999e-06
9.9999e-06
9.9999e-06
9.9999e-06
9.9999e-06
9.9999e-06
9.9999e-06
9.9999e-06
9.9999e-06
9.9999e-06
9.9999e-06
9.9999e-06
9.9999e-06
9.9999e-06
9.9999e-06
9.9999e-06
9.9999e-06
9.9999e-06
9.9999e-06
9.9999e-06
9.9999e-06
9.9999e-06
9.9999e-06
9.9999e-06
9.9999e-06
9.9999e-06
9.9999e-06
9.9999e-06
9.9999e-06
9.9999e-06
9.9999e-06
9.9999e-06
9.9999e-06
9.9999e-06
9.9999e-06
9.9999e-06
9.9999e-06
9.9999e-06
9.9999e-06
9.9999e-06
9.9999e-06
9.9999e-06
9.9999e-06
9.9999e-06
9.9999e-06
9.9999e-06
9.9999e-06
9.9999e-06
9.9999e-06
9.9999e-06
9.9999e-06
9.9999e-06
9.9999e-06
9.9999e-06
9.9999e-06
9.9999e-06
9.9999e-06
9.9999e-06
9.9999e-06
9.9999e-06
9.9999e-06
9.9999e-06
9.9999e-06
9.9999e-06
9.9999e-06
9.9999e-06
9.9999e-06
9.9999e-06
9.9999e-06
9.9999e-06
9.9999e-06
9.9999e-06
9.9999e-06
9.9999e-06
9.9999e-06
9.9999e-06
9.9999e-06
9.9999e-06
9.9999e-06
9.9999e-06
9.9999e-06
9.9999e-06
9.9999e-06
9.9999e-06
9.9999e-06
9.9999e-06
9.9999e-06
9.9999e-06
9.9999e-06
9.9999e-06
9.9999e-06
9.9999e-06
9.9999e-06
9.9999e-06
9.9999e-06
9.9999e-06
9.9999e-06
9.9999e-06
9.9999e-06
9.9999e-06
9.9999e-06
9.9999e-06
9.9999e-06
9.9999e-06
9.9999e-06
9.9999e-06
9.9999e-06
9.99989e-06
9.99989e-06
9.99989e-06
9.99989e-06
9.99989e-06
9.99989e-06
9.99989e-06
9.99989e-06
9.99989e-06
9.99989e-06
9.99989e-06
9.99989e-06
9.99989e-06
9.99989e-06
9.99989e-06
9.99989e-06
9.99989e-06
9.99989e-06
9.99989e-06
9.99989e-06
9.99989e-06
9.99989e-06
9.99989e-06
9.99989e-06
9.99989e-06
9.99989e-06
9.99989e-06
9.99989e-06
9.99989e-06
9.99989e-06
9.99989e-06
9.99989e-06
9.99989e-06
9.9999e-06
9.9999e-06
9.9999e-06
9.9999e-06
9.9999e-06
9.9999e-06
9.9999e-06
9.9999e-06
9.9999e-06
9.9999e-06
9.9999e-06
9.9999e-06
9.9999e-06
9.9999e-06
9.9999e-06
9.9999e-06
9.9999e-06
9.9999e-06
9.9999e-06
9.9999e-06
9.9999e-06
9.9999e-06
9.9999e-06
9.9999e-06
9.9999e-06
9.9999e-06
9.9999e-06
9.9999e-06
9.9999e-06
9.9999e-06
9.9999e-06
9.9999e-06
9.9999e-06
9.9999e-06
9.9999e-06
9.9999e-06
9.9999e-06
9.9999e-06
9.9999e-06
9.9999e-06
9.9999e-06
9.9999e-06
9.9999e-06
9.9999e-06
9.9999e-06
9.9999e-06
9.9999e-06
9.9999e-06
9.9999e-06
9.9999e-06
9.9999e-06
9.9999e-06
9.9999e-06
9.9999e-06
9.9999e-06
9.9999e-06
1.40791e-08
2.22492e-08
6.18844e-08
3.07691e-07
5.96487e-07
5.00114e-07
4.64314e-07
4.37439e-07
4.12612e-07
3.91038e-07
3.72391e-07
3.55776e-07
3.40512e-07
3.26513e-07
3.14082e-07
3.03148e-07
2.93155e-07
2.83996e-07
2.75508e-07
2.67765e-07
2.60879e-07
2.54805e-07
2.49364e-07
2.44391e-07
2.39784e-07
2.355e-07
2.31526e-07
2.27829e-07
2.24377e-07
2.21159e-07
2.18166e-07
2.15463e-07
2.1306e-07
2.1094e-07
2.0911e-07
2.07555e-07
2.06245e-07
2.05209e-07
2.0447e-07
2.04053e-07
2.03957e-07
2.04159e-07
2.04625e-07
2.05312e-07
2.0618e-07
2.07187e-07
2.08292e-07
2.09468e-07
2.10695e-07
2.11965e-07
2.13301e-07
2.1468e-07
2.16101e-07
2.17572e-07
2.1909e-07
2.20601e-07
2.22076e-07
2.23496e-07
2.24921e-07
2.2637e-07
2.27788e-07
2.29095e-07
2.30324e-07
2.31559e-07
2.32834e-07
2.34107e-07
2.35433e-07
2.37073e-07
2.39224e-07
2.41922e-07
2.45493e-07
2.50524e-07
2.57462e-07
2.67651e-07
2.83213e-07
3.05888e-07
3.40318e-07
3.93064e-07
4.62109e-07
5.30982e-07
6.49272e-07
7.35165e-07
9.3041e-07
5.43541e-07
3.6178e-07
2.41295e-07
1.36687e-07
1.13478e-07
7.89872e-08
8.08223e-08
3.97622e-08
4.23243e-08
8.64386e-08
9.14051e-08
3.9074e-07
2.94479e-07
2.09372e-06
1.97467e-06
8.67509e-07
8.26832e-07
1.10882e-06
1.05624e-06
1.17992e-06
1.25968e-06
1.17786e-06
1.16979e-06
1.14717e-06
1.13725e-06
1.15863e-06
1.11736e-06
1.14835e-06
1.02395e-06
1.04724e-06
1.2353e-06
1.26519e-06
1.40021e-06
1.44368e-06
1.50643e-06
1.5402e-06
1.53259e-06
1.54725e-06
1.57573e-06
1.65205e-06
1.65744e-06
1.61509e-06
1.61352e-06
1.49349e-06
1.51149e-06
1.24584e-06
1.26705e-06
1.59935e-06
1.62128e-06
1.84144e-06
1.87902e-06
1.91079e-06
2.01856e-06
2.0703e-06
2.05332e-06
2.08596e-06
2.13486e-06
2.16879e-06
2.21113e-06
2.25288e-06
2.28599e-06
2.32355e-06
2.36835e-06
2.41456e-06
2.45935e-06
2.50678e-06
2.55878e-06
2.61105e-06
2.66133e-06
2.71309e-06
2.76681e-06
2.82032e-06
2.87583e-06
2.93532e-06
2.99554e-06
3.05544e-06
3.12091e-06
3.19309e-06
3.26412e-06
3.3284e-06
3.39198e-06
3.46411e-06
3.54379e-06
3.62106e-06
3.69838e-06
3.78715e-06
3.88407e-06
3.97382e-06
4.05667e-06
4.14784e-06
4.24745e-06
4.34475e-06
4.44478e-06
4.55968e-06
4.68417e-06
4.80693e-06
4.9325e-06
5.06683e-06
5.2001e-06
5.3261e-06
5.45624e-06
5.59928e-06
5.74833e-06
5.8995e-06
6.06287e-06
6.24361e-06
6.42861e-06
6.6038e-06
6.77266e-06
6.94543e-06
7.11958e-06
7.29454e-06
7.49363e-06
7.73601e-06
8.00279e-06
8.2657e-06
8.52543e-06
8.78889e-06
9.04181e-06
9.28014e-06
9.52938e-06
9.80184e-06
1e-05
1e-05
1e-05
1e-05
1e-05
1e-05
1e-05
9.99999e-06
9.99999e-06
9.99999e-06
9.99999e-06
9.99999e-06
9.99999e-06
9.99999e-06
9.99998e-06
9.99998e-06
9.99998e-06
9.99998e-06
9.99998e-06
9.99998e-06
9.99998e-06
9.99998e-06
9.99998e-06
9.99998e-06
9.99998e-06
9.99998e-06
9.99998e-06
9.99997e-06
9.99997e-06
9.99997e-06
9.99997e-06
9.99997e-06
9.99997e-06
9.99997e-06
9.99997e-06
9.99997e-06
9.99997e-06
9.99997e-06
9.99997e-06
9.99997e-06
9.99997e-06
9.99997e-06
9.99997e-06
9.99997e-06
9.99997e-06
9.99997e-06
9.99997e-06
9.99997e-06
9.99997e-06
9.99997e-06
9.99997e-06
9.99997e-06
9.99997e-06
9.99997e-06
9.99997e-06
9.99997e-06
9.99997e-06
9.99996e-06
9.99996e-06
9.99996e-06
9.99996e-06