/*--------------------------------*- C++ -*----------------------------------*\
| =========                 |                                                 |
| \\      /  F ield         | OpenFOAM: The Open Source CFD Toolbox           |
|  \\    /   O peration     | Version:  v2006                                 |
|   \\  /    A nd           | Website:  www.openfoam.com                      |
|    \\/     M anipulation  |                                                 |
\*---------------------------------------------------------------------------*/
FoamFile
{
    version     2.0;
    format      ascii;
    class       volScalarField;
    location    "0.3";
    object      omega;
}
// * * * * * * * * * * * * * * * * * * * * * * * * * * * * * * * * * * * * * //

dimensions      [0 0 -1 0 0 0 0];


internalField   nonuniform List<scalar> 
33000
(
0.801385
0.801426
0.801428
0.801427
0.801427
0.801426
0.801426
0.801425
0.801424
0.801424
0.801423
0.801423
0.801422
0.801421
0.80142
0.80142
0.801419
0.801418
0.801417
0.801416
0.801415
0.801414
0.801413
0.801412
0.801411
0.80141
0.801409
0.801407
0.801406
0.801405
0.801403
0.801402
0.8014
0.801399
0.801397
0.801396
0.801394
0.801392
0.80139
0.801388
0.801386
0.801384
0.801382
0.80138
0.801377
0.801375
0.801372
0.801369
0.801366
0.801363
0.801359
0.801356
0.801353
0.80135
0.801347
0.801344
0.801341
0.801338
0.801335
0.801332
0.801329
0.801327
0.801324
0.801321
0.801318
0.801316
0.801313
0.80131
0.801307
0.801304
0.801301
0.801298
0.801295
0.801291
0.801287
0.801282
0.801275
0.801274
0.801247
0.801249
0.801243
0.801244
0.801244
0.801243
0.801243
0.801243
0.801242
0.801242
0.801241
0.801241
0.80124
0.80124
0.801239
0.801239
0.801238
0.801238
0.801238
0.801237
0.801237
0.801236
0.801236
0.801235
0.801235
0.801234
0.801234
0.801233
0.801233
0.801233
0.801232
0.801232
0.801232
0.801231
0.801231
0.80123
0.80123
0.80123
0.801229
0.801229
0.801228
0.801228
0.801228
0.801228
0.801227
0.801227
0.801227
0.801226
0.801226
0.801226
0.801226
0.801225
0.801225
0.801225
0.801225
0.801224
0.801224
0.801224
0.801224
0.801224
0.801223
0.801223
0.801223
0.801223
0.801223
0.801222
0.801222
0.801222
0.801222
0.801222
0.801222
0.801221
0.801221
0.801221
0.801221
0.801221
0.801221
0.801221
0.80122
0.80122
0.80122
0.80122
0.80122
0.80122
0.80122
0.80122
0.801219
0.801219
0.801219
0.801219
0.801219
0.801219
0.801219
0.801219
0.801219
0.801219
0.801218
0.801218
0.801218
0.801218
0.801218
0.801218
0.801218
0.801218
0.801218
0.801218
0.801218
0.801218
0.801218
0.801217
0.801217
0.801217
0.801217
0.801217
0.801217
0.801217
0.801217
0.801217
0.801217
0.801217
0.801217
0.801217
0.801217
0.801217
0.801217
0.801217
0.801217
0.801217
0.801217
0.801217
0.801217
0.801216
0.801216
0.801216
0.801216
0.801216
0.801216
0.801216
0.801216
0.801216
0.801216
0.801216
0.801216
0.801216
0.801216
0.801216
0.801216
0.801216
0.801216
0.801216
0.801216
0.801216
0.801216
0.801216
0.801216
0.801216
0.801216
0.801216
0.801216
0.801216
0.801216
0.801216
0.801216
0.801216
0.801216
0.801216
0.801216
0.801216
0.801216
0.801216
0.801216
0.801216
0.801216
0.801216
0.801216
0.801216
0.801216
0.801216
0.801216
0.801216
0.801216
0.801216
0.801216
0.801216
0.801216
0.801216
0.801216
0.801216
0.801216
0.801216
0.801215
0.801215
0.801215
0.801215
0.801215
0.801215
0.801215
0.801215
0.801215
0.801215
0.801215
0.801215
0.801215
0.801215
0.801215
0.801215
0.801215
0.801215
0.801215
0.801215
0.801215
0.801215
0.801215
0.801215
0.801215
0.801215
0.801215
0.801215
0.801215
0.801215
0.801215
0.801215
0.801215
0.801215
0.801215
0.801215
0.801215
0.801215
0.801215
0.801215
0.801215
0.801215
0.801215
0.801215
0.801215
0.801215
0.801215
0.801215
0.801215
0.801215
0.801215
0.801215
0.801215
0.801215
0.801215
0.801215
0.801215
0.801215
0.801215
0.801215
0.801215
0.801215
0.801215
0.801215
0.801215
0.801215
0.801215
0.801215
0.801215
0.801215
0.801215
0.801215
0.801215
0.801215
0.801215
0.801215
0.801215
0.801215
0.801215
0.801215
0.801215
0.801215
0.801215
0.801215
0.801215
0.801215
0.801215
0.801215
0.801215
0.801215
0.801215
0.801215
0.801215
0.801215
0.801215
0.801215
0.801215
0.801215
0.801215
0.801215
0.801215
0.801215
0.801215
0.801215
0.801215
0.801215
0.801215
0.801215
0.801215
0.801215
0.801215
0.801215
0.801215
0.801215
0.801215
0.801215
0.801215
0.801215
0.801215
0.801215
0.801215
0.801215
0.801215
0.801215
0.801215
0.801215
0.801215
0.801215
0.801215
0.801215
0.801215
0.801215
0.801215
0.801215
0.801215
0.801215
0.801215
0.801215
0.801215
0.801215
0.801215
0.801215
0.801215
0.801215
0.801215
0.801215
0.801215
0.801215
0.801215
0.801215
0.801215
0.801215
0.801215
0.801215
0.801215
0.801215
0.801215
0.801215
0.801215
0.801215
0.801215
0.801215
0.801215
0.801215
0.801215
0.801215
0.801215
0.801215
0.801215
0.801215
0.801215
0.801215
0.801215
0.801215
0.801215
0.801215
0.801215
0.801215
0.801215
0.801215
0.801215
0.801215
0.801215
0.801215
0.801215
0.801215
0.801215
0.801215
0.801215
0.801215
0.801215
0.801215
0.801215
0.801215
0.801215
0.801215
0.801215
0.801215
0.801215
0.801215
0.801215
0.801215
0.801215
0.801215
0.801215
0.801215
0.801215
0.801215
0.801215
0.801215
0.801215
0.801215
0.801215
0.801215
0.801215
0.801215
0.801215
0.801215
0.801215
0.801215
0.801215
0.801215
0.801215
0.801215
0.801215
0.801215
0.801215
0.801215
0.801215
0.801215
0.801215
0.801215
0.801215
0.801215
0.801215
0.801215
0.801215
0.801215
0.801215
0.801215
0.801215
0.801215
0.801215
0.801215
0.801215
0.801215
0.801215
0.801215
0.801215
0.801215
0.801215
0.801215
0.801215
0.801215
0.801215
0.801215
0.801215
0.801215
0.801215
0.801215
0.801215
0.801215
0.801215
0.801215
0.801215
0.801215
0.801215
0.801215
0.801215
0.801215
0.801215
0.801215
0.801215
0.801215
0.801215
0.801215
0.801215
0.801215
0.801215
0.801215
0.801215
0.801216
0.00233667
0.00279421
0.00282628
0.00289222
0.00294221
0.0029827
0.00302406
0.00306301
0.00310063
0.00313582
0.00316902
0.00320107
0.00323028
0.00325825
0.00328439
0.00330799
0.00332934
0.00334864
0.00336564
0.00338055
0.0033934
0.00340447
0.0034131
0.00341946
0.00342406
0.00342714
0.00342878
0.00342921
0.00342874
0.00342724
0.00342451
0.00342065
0.00341584
0.00341003
0.00340291
0.00339451
0.00338518
0.0033751
0.00336411
0.00335193
0.00333877
0.00332491
0.00331047
0.00329545
0.00327984
0.00326365
0.00324715
0.00323044
0.00321379
0.00319727
0.00318079
0.00316446
0.00314846
0.00313298
0.00311824
0.00310423
0.00309073
0.00307761
0.00306508
0.00305357
0.00304345
0.00303493
0.00302789
0.00302276
0.00302036
0.00302148
0.00302694
0.00303823
0.00305828
0.00309115
0.00314228
0.00322097
0.00334591
0.00354902
0.00388547
0.00445693
0.00544424
0.00734346
0.00641869
0.00337055
0.00256788
0.00168968
0.00203081
0.00178502
0.0018246
0.00212848
0.00225411
0.00249627
0.00231022
0.00223574
0.00218986
0.00224124
0.00224775
0.00226732
0.00228219
0.00226867
0.00227324
0.00228254
0.00230858
0.00229976
0.00227539
0.00223095
0.00222464
0.00226318
0.00225926
0.00227306
0.00228011
0.00228392
0.0022927
0.00229633
0.00229547
0.00229984
0.00230511
0.00231044
0.00231935
0.00233069
0.00235958
0.00235237
0.00233087
0.00228266
0.00227925
0.00232617
0.00232688
0.00234643
0.00235601
0.00236716
0.00237377
0.00237354
0.0023783
0.00238456
0.00238947
0.00239491
0.00240066
0.00240644
0.00241266
0.00241889
0.00242474
0.00243078
0.00243714
0.00244288
0.00244891
0.00245511
0.00246142
0.00246714
0.00247325
0.0024797
0.00248489
0.00249024
0.00249594
0.00250173
0.00250661
0.00251127
0.00251627
0.00252052
0.00252431
0.00252855
0.0025331
0.0025363
0.00253937
0.00254168
0.00254368
0.00254559
0.0025475
0.00254858
0.00254913
0.00254979
0.00255019
0.00254891
0.00254777
0.00254673
0.00254558
0.00254436
0.00254327
0.00254228
0.00254123
0.00254014
0.00253916
0.00253826
0.00253731
0.00253635
0.00253546
0.0025346
0.00253368
0.00253273
0.00253186
0.00253105
0.00253024
0.00252942
0.00252865
0.00252792
0.00252718
0.0025264
0.00252563
0.0025249
0.00252422
0.00252355
0.00252291
0.00252229
0.0025217
0.00252112
0.00252057
0.00252003
0.0025195
0.00251898
0.00251847
0.00251796
0.00251744
0.00251692
0.00251642
0.0025159
0.00251539
0.00251497
0.00251462
0.00251427
0.00251392
0.00251361
0.00251334
0.00251303
0.00251267
0.00251233
0.00251205
0.00251177
0.00251147
0.0025112
0.002511
0.0025108
0.00251057
0.00251031
0.00251006
0.00250983
0.00250959
0.00250935
0.00250912
0.0025089
0.00250869
0.00250849
0.00250833
0.00250816
0.00250797
0.00250775
0.00250753
0.00250734
0.00250717
0.00250704
0.00250693
0.00250682
0.00250669
0.00250654
0.00250643
0.00250636
0.00250627
0.00250614
0.00250595
0.0025058
0.00250571
0.00250565
0.00250553
0.00250535
0.00250517
0.00250505
0.00250498
0.00250494
0.00250488
0.00250482
0.00250475
0.00250466
0.00250457
0.00250449
0.0025044
0.00250429
0.00250418
0.0025041
0.00250407
0.00250405
0.00250404
0.00250403
0.00250402
0.00250401
0.00250401
0.00250401
0.00250401
0.00250401
0.002504
0.00250398
0.00250395
0.00250393
0.00250391
0.00250389
0.00250386
0.00250383
0.00250381
0.00250379
0.00250377
0.00250375
0.00250375
0.00250375
0.00250376
0.00250376
0.00250375
0.00250375
0.00250374
0.00250374
0.00250373
0.00250372
0.00250369
0.00250367
0.00250364
0.00250362
0.0025036
0.0025036
0.00250359
0.0025036
0.00250361
0.00250362
0.00250363
0.00250364
0.00250364
0.00250363
0.00250361
0.00250359
0.00250356
0.00250354
0.00250351
0.00250347
0.00250345
0.00250343
0.00250344
0.00250345
0.00250347
0.00250347
0.00250346
0.00250345
0.00250343
0.0025034
0.00250335
0.0025033
0.00250326
0.00250324
0.00250323
0.00250322
0.00250322
0.00250322
0.00250324
0.00250325
0.00250324
0.00250323
0.00250321
0.00250318
0.00250314
0.00250311
0.00250309
0.00250307
0.00250307
0.00250307
0.00250308
0.00250309
0.00250308
0.00250306
0.00250304
0.00250301
0.00250298
0.00250294
0.00250292
0.00250292
0.00250293
0.00250293
0.00250294
0.00250294
0.00250293
0.00250291
0.00250288
0.00250285
0.00250282
0.0025028
0.00250279
0.00250278
0.00250277
0.00250277
0.00250276
0.00250274
0.0025027
0.00250267
0.00250264
0.00250263
0.00250263
0.00250265
0.00250266
0.00250266
0.00250265
0.00250263
0.00250261
0.00250259
0.00250258
0.00250259
0.00250261
0.00250263
0.00250264
0.00250264
0.00250262
0.00250258
0.00250255
0.00250253
0.00250253
0.00250253
0.00250253
0.00250252
0.00250251
0.00250248
0.00250246
0.00250246
0.00250246
0.00250247
0.00250246
0.00250244
0.00250242
0.0025024
0.00250238
0.00250238
0.00250237
0.00250236
0.00250235
0.00250236
0.00250245
0.00250251
0.00250258
0.00250256
0.00250252
0.00250254
0.00250257
0.00250263
0.00250261
0.00250258
0.00250251
0.00250251
0.00250257
0.00250268
0.00250276
0.00250274
0.0025028
0.00250269
0.00250281
0.002503
0.00250301
0.00250301
0.00250292
0.002503
0.00250301
0.0025029
0.00250286
0.0025027
0.00250291
0.00250276
0.00250296
0.00250298
0.00250309
0.00250297
0.00250264
0.00250294
0.00250262
0.00250243
0.00250275
0.00250261
0.0025026
0.00250255
0.00250266
0.00250223
0.00250252
0.00250332
0.00250373
0.00250468
0.00250397
0.00250346
0.00250343
0.00250327
0.00250313
0.00250312
0.00250315
0.00250316
0.00250316
0.00250315
0.00250308
0.00250291
0.00250275
0.00250268
0.00250269
0.00250269
0.00250264
0.00250254
0.00250245
0.00250241
0.00250243
0.00250249
0.00250261
0.00250276
0.00250293
0.00250304
0.0025031
0.00250309
0.00250302
0.00250285
0.00250259
0.00250229
0.00250225
0.00250224
0.00250224
0.00250223
0.00250223
0.00250224
0.00250224
0.00250224
0.00250224
0.00250227
0.00250234
0.00250246
0.00250255
0.00250261
0.00250262
0.00250259
0.00250253
0.00250247
0.00250239
0.00250235
0.00250239
0.00250251
0.00250266
0.00250276
0.00250268
0.0025025
0.00250241
0.00250259
0.00250297
0.00250331
0.0025032
0.00250288
0.00250274
0.002503
0.00250332
0.00250317
0.00250267
0.00250248
0.00250276
0.00250284
0.00250239
0.00250223
0.00250267
0.00250309
0.00250298
0.0025034
0.00250347
0.00248576
0.00106273
0.00107316
0.00102781
0.00101062
0.00100867
0.00100906
0.00100944
0.00100979
0.00101014
0.00101047
0.00101078
0.00101108
0.00101136
0.00101163
0.00101188
0.00101211
0.00101232
0.00101251
0.00101268
0.00101284
0.00101297
0.00101309
0.00101318
0.00101326
0.00101331
0.00101335
0.00101337
0.00101339
0.00101339
0.00101337
0.00101335
0.00101332
0.00101327
0.00101321
0.00101315
0.00101307
0.00101298
0.00101288
0.00101277
0.00101265
0.00101253
0.0010124
0.00101226
0.00101211
0.00101197
0.00101182
0.00101166
0.00101151
0.00101136
0.00101121
0.00101107
0.00101092
0.00101078
0.00101064
0.00101051
0.00101038
0.00101025
0.00101013
0.00101001
0.00100991
0.00100981
0.00100972
0.00100965
0.00100959
0.00100955
0.00100954
0.00100956
0.00100961
0.00100972
0.00100989
0.00101016
0.00101056
0.00101116
0.00101209
0.0010136
0.00101612
0.00102049
0.00102969
0.00102786
0.001018
0.00101645
0.00101508
0.00101379
0.00102597
0.00102444
0.00101412
0.00101213
0.00101013
0.00100333
0.00100437
0.00100188
0.00100191
0.00100232
0.00100242
0.00100222
0.00100228
0.00100217
0.00100212
0.00100222
0.00100221
0.00100221
0.00100215
0.00100218
0.00100222
0.00100231
0.00100231
0.00100221
0.00100221
0.00100216
0.00100213
0.00100211
0.00100209
0.00100209
0.0010021
0.0010021
0.0010021
0.00100212
0.0010021
0.00100209
0.00100202
0.00100203
0.00100209
0.00100218
0.00100219
0.00100211
0.00100212
0.00100211
0.00100211
0.00100211
0.00100212
0.00100213
0.00100215
0.00100216
0.00100217
0.00100219
0.0010022
0.00100222
0.00100223
0.00100225
0.00100227
0.00100228
0.0010023
0.00100232
0.00100234
0.00100236
0.00100238
0.0010024
0.00100242
0.00100244
0.00100246
0.00100248
0.0010025
0.00100252
0.00100254
0.00100256
0.00100259
0.00100261
0.00100263
0.00100265
0.00100266
0.00100268
0.0010027
0.00100272
0.00100273
0.00100275
0.00100277
0.00100278
0.0010028
0.00100281
0.00100282
0.00100283
0.00100285
0.00100286
0.00100288
0.00100289
0.00100291
0.00100292
0.00100294
0.00100295
0.00100296
0.00100298
0.00100299
0.00100301
0.00100302
0.00100304
0.00100305
0.00100306
0.00100307
0.00100308
0.00100309
0.0010031
0.00100311
0.00100313
0.00100314
0.00100315
0.00100317
0.00100318
0.00100318
0.00100318
0.00100318
0.00100318
0.00100317
0.00100317
0.00100317
0.00100317
0.00100316
0.00100316
0.00100316
0.00100316
0.00100315
0.00100315
0.00100315
0.00100315
0.00100315
0.00100314
0.00100314
0.00100314
0.00100314
0.00100314
0.00100314
0.00100314
0.00100313
0.00100313
0.00100313
0.00100313
0.00100313
0.00100313
0.00100313
0.00100313
0.00100313
0.00100312
0.00100312
0.00100312
0.00100312
0.00100312
0.00100312
0.00100312
0.00100312
0.00100312
0.00100312
0.00100311
0.00100311
0.00100311
0.00100311
0.00100311
0.00100311
0.00100311
0.00100311
0.00100311
0.00100311
0.00100311
0.00100311
0.00100311
0.00100311
0.00100311
0.00100311
0.00100311
0.00100311
0.00100311
0.0010031
0.0010031
0.0010031
0.0010031
0.0010031
0.0010031
0.0010031
0.0010031
0.0010031
0.0010031
0.0010031
0.0010031
0.0010031
0.0010031
0.0010031
0.0010031
0.0010031
0.0010031
0.0010031
0.0010031
0.0010031
0.0010031
0.0010031
0.0010031
0.0010031
0.0010031
0.0010031
0.0010031
0.0010031
0.0010031
0.0010031
0.0010031
0.0010031
0.0010031
0.0010031
0.0010031
0.0010031
0.0010031
0.0010031
0.0010031
0.0010031
0.0010031
0.0010031
0.0010031
0.0010031
0.0010031
0.0010031
0.0010031
0.0010031
0.0010031
0.0010031
0.0010031
0.0010031
0.0010031
0.0010031
0.0010031
0.0010031
0.0010031
0.0010031
0.0010031
0.0010031
0.0010031
0.0010031
0.0010031
0.0010031
0.0010031
0.0010031
0.0010031
0.0010031
0.0010031
0.0010031
0.0010031
0.0010031
0.0010031
0.0010031
0.0010031
0.0010031
0.0010031
0.0010031
0.0010031
0.0010031
0.0010031
0.0010031
0.0010031
0.0010031
0.0010031
0.0010031
0.0010031
0.0010031
0.0010031
0.0010031
0.0010031
0.0010031
0.0010031
0.0010031
0.0010031
0.0010031
0.0010031
0.0010031
0.0010031
0.0010031
0.0010031
0.0010031
0.0010031
0.0010031
0.0010031
0.0010031
0.00100309
0.00100309
0.00100309
0.00100309
0.00100309
0.00100309
0.00100309
0.00100309
0.00100309
0.00100309
0.00100309
0.00100309
0.00100309
0.00100309
0.00100309
0.00100309
0.00100309
0.00100309
0.00100309
0.00100309
0.00100309
0.00100309
0.00100309
0.00100309
0.00100309
0.00100309
0.00100309
0.00100309
0.00100309
0.00100309
0.00100309
0.00100309
0.00100309
0.00100309
0.00100309
0.00100309
0.00100309
0.00100309
0.00100309
0.00100309
0.00100309
0.00100309
0.00100309
0.00100309
0.00100309
0.00100309
0.00100309
0.00100309
0.00100309
0.00100309
0.00100309
0.00100309
0.00100309
0.00100309
0.00100309
0.00100309
0.00100309
0.00100309
0.00100309
0.00100309
0.00100309
0.00100309
0.00100309
0.00100309
0.00100309
0.00100309
0.00100309
0.00100309
0.00100309
0.00100309
0.00100309
0.00100309
0.00100309
0.00100309
0.00100309
0.00100309
0.00100309
0.00100309
0.00100309
0.00100309
0.00100309
0.00100309
0.00100309
0.00100309
0.00100309
0.00100309
0.00100309
0.00100309
0.00100309
0.00100309
0.00100309
0.00100309
0.00100309
0.00100309
0.00100309
0.00100309
0.00100309
0.00100309
0.00100309
0.00100309
0.00100309
0.00100309
0.00100309
0.0010031
0.00100309
0.00100309
0.00100309
0.00100309
0.00100309
0.00100309
0.00100309
0.00100309
0.00100309
0.00100309
0.00100309
0.00100309
0.00100309
0.00100309
0.00100309
0.00100309
0.00100309
0.00100309
0.00100309
0.00100309
0.00100309
0.00100309
0.00100309
0.00100309
0.00100309
0.00100309
0.00100309
0.00100309
0.00100309
0.00100309
0.00100309
0.00100309
0.00100309
0.00100309
0.00100309
0.00100309
0.00100309
0.00100309
0.00100309
0.00100309
0.00100309
0.00100309
0.00100309
0.00100309
0.00100309
0.00100309
0.00100309
0.00100309
0.00100309
0.00100309
0.00100309
0.00100309
0.00100309
0.00100309
0.00100309
0.0010031
0.00100309
0.00100309
0.00100309
0.00100309
0.0010031
0.0010031
0.0010031
0.0010031
0.0010031
0.0010031
0.0010031
0.0010031
0.00100309
0.00100309
0.0010031
0.0010031
0.00100309
0.00100309
0.0010031
0.0010031
0.0010031
0.0010031
0.0010031
0.00100304
0.0010681
0.00107073
0.00102454
0.0010069
0.00100469
0.00100487
0.00100504
0.00100519
0.00100533
0.00100547
0.00100559
0.0010057
0.00100581
0.00100591
0.001006
0.00100609
0.00100616
0.00100623
0.00100629
0.00100635
0.00100639
0.00100643
0.00100646
0.00100649
0.0010065
0.00100652
0.00100652
0.00100652
0.00100652
0.00100651
0.0010065
0.00100648
0.00100646
0.00100644
0.0010064
0.00100637
0.00100633
0.00100629
0.00100625
0.0010062
0.00100614
0.00100609
0.00100603
0.00100597
0.00100591
0.00100585
0.00100579
0.00100572
0.00100566
0.0010056
0.00100554
0.00100549
0.00100543
0.00100537
0.00100531
0.00100525
0.00100519
0.00100513
0.00100507
0.00100501
0.00100495
0.0010049
0.00100485
0.0010048
0.00100475
0.00100471
0.00100467
0.00100464
0.0010046
0.00100456
0.00100451
0.00100445
0.00100436
0.00100424
0.00100404
0.00100375
0.00100333
0.00100277
0.0010022
0.00100158
0.0010008
0.00100164
0.00100551
0.00100677
0.00101008
0.00101164
0.00101409
0.00102325
0.00102235
0.00101068
0.00101001
0.0010023
0.001003
0.00100016
0.00100008
0.00100091
0.00100097
0.00100066
0.00100071
0.00100057
0.0010005
0.00100056
0.00100057
0.00100057
0.00100058
0.00100059
0.00100063
0.00100061
0.00100072
0.0010007
0.00100053
0.00100051
0.00100043
0.0010004
0.00100037
0.00100034
0.00100034
0.00100032
0.00100031
0.00100028
0.00100027
0.00100028
0.00100028
0.00100031
0.0010003
0.00100041
0.0010004
0.00100026
0.00100025
0.0010002
0.00100019
0.00100017
0.00100017
0.00100017
0.00100016
0.00100015
0.00100014
0.00100014
0.00100013
0.00100012
0.00100012
0.00100011
0.00100011
0.0010001
0.0010001
0.00100009
0.00100009
0.00100008
0.00100008
0.00100008
0.00100007
0.00100007
0.00100006
0.00100006
0.00100006
0.00100005
0.00100005
0.00100005
0.00100005
0.00100004
0.00100004
0.00100004
0.00100003
0.00100003
0.00100003
0.00100003
0.00100003
0.00100002
0.00100002
0.00100002
0.00100002
0.00100002
0.00100002
0.00100001
0.00100001
0.00100001
0.00100001
0.00100001
0.00100001
0.00100001
0.00100001
0.00100001
0.001
0.001
0.001
0.001
0.001
0.001
0.001
0.001
0.000999999
0.000999999
0.000999998
0.000999998
0.000999997
0.000999997
0.000999996
0.000999996
0.000999995
0.000999995
0.000999995
0.000999994
0.000999994
0.000999994
0.000999993
0.000999993
0.000999993
0.000999993
0.000999992
0.000999992
0.000999992
0.000999992
0.000999992
0.000999991
0.000999991
0.000999991
0.000999991
0.000999991
0.000999991
0.000999991
0.00099999
0.00099999
0.00099999
0.00099999
0.00099999
0.00099999
0.00099999
0.00099999
0.00099999
0.00099999
0.00099999
0.00099999
0.000999989
0.000999989
0.000999989
0.000999989
0.000999989
0.000999989
0.000999989
0.000999989
0.000999989
0.000999989
0.000999989
0.000999989
0.000999989
0.000999989
0.000999988
0.000999988
0.000999988
0.000999988
0.000999988
0.000999988
0.000999988
0.000999988
0.000999988
0.000999988
0.000999988
0.000999988
0.000999988
0.000999988
0.000999988
0.000999987
0.000999987
0.000999987
0.000999987
0.000999987
0.000999987
0.000999987
0.000999987
0.000999987
0.000999987
0.000999987
0.000999987
0.000999987
0.000999987
0.000999987
0.000999987
0.000999987
0.000999987
0.000999987
0.000999987
0.000999987
0.000999987
0.000999987
0.000999987
0.000999987
0.000999987
0.000999987
0.000999987
0.000999987
0.000999987
0.000999987
0.000999987
0.000999987
0.000999987
0.000999987
0.000999987
0.000999987
0.000999987
0.000999987
0.000999987
0.000999987
0.000999987
0.000999987
0.000999987
0.000999987
0.000999987
0.000999987
0.000999987
0.000999987
0.000999987
0.000999987
0.000999987
0.000999987
0.000999987
0.000999987
0.000999987
0.000999987
0.000999987
0.000999987
0.000999987
0.000999987
0.000999987
0.000999987
0.000999987
0.000999987
0.000999987
0.000999987
0.000999987
0.000999987
0.000999987
0.000999987
0.000999987
0.000999987
0.000999987
0.000999987
0.000999987
0.000999987
0.000999987
0.000999987
0.000999987
0.000999987
0.000999987
0.000999987
0.000999987
0.000999987
0.000999987
0.000999987
0.000999986
0.000999986
0.000999986
0.000999986
0.000999986
0.000999986
0.000999986
0.000999986
0.000999986
0.000999986
0.000999986
0.000999986
0.000999986
0.000999986
0.000999986
0.000999985
0.000999985
0.000999985
0.000999985
0.000999985
0.000999985
0.000999985
0.000999985
0.000999985
0.000999985
0.000999985
0.000999985
0.000999985
0.000999985
0.000999985
0.000999985
0.000999985
0.000999984
0.000999984
0.000999984
0.000999984
0.000999984
0.000999984
0.000999984
0.000999984
0.000999984
0.000999984
0.000999984
0.000999984
0.000999984
0.000999984
0.000999984
0.000999984
0.000999984
0.000999984
0.000999983
0.000999983
0.000999983
0.000999983
0.000999983
0.000999983
0.000999983
0.000999983
0.000999983
0.000999983
0.000999983
0.000999983
0.000999983
0.000999983
0.000999983
0.000999983
0.000999983
0.000999983
0.000999983
0.000999983
0.000999983
0.000999983
0.000999983
0.000999983
0.000999983
0.000999983
0.000999983
0.000999983
0.000999983
0.000999983
0.000999983
0.000999983
0.000999983
0.000999983
0.000999983
0.000999983
0.000999983
0.000999983
0.000999983
0.000999983
0.000999983
0.000999983
0.000999983
0.000999983
0.000999983
0.000999983
0.000999983
0.000999983
0.000999983
0.000999983
0.000999983
0.000999983
0.000999983
0.000999983
0.000999983
0.000999983
0.000999983
0.000999983
0.000999983
0.000999983
0.000999982
0.000999983
0.000999982
0.000999981
0.000999981
0.00099998
0.00099998
0.00099998
0.00099998
0.00099998
0.00099998
0.00099998
0.00099998
0.00099998
0.00099998
0.00099998
0.00099998
0.00099998
0.00099998
0.00099998
0.00099998
0.00099998
0.00099998
0.00099998
0.00099998
0.00099998
0.00099998
0.000999981
0.000999981
0.000999981
0.000999981
0.000999981
0.000999981
0.000999981
0.000999982
0.000999982
0.000999982
0.000999982
0.000999982
0.000999983
0.000999983
0.000999983
0.000999983
0.000999983
0.000999984
0.000999984
0.000999984
0.000999984
0.000999984
0.000999985
0.000999985
0.000999985
0.000999985
0.000999985
0.000999985
0.000999985
0.000999985
0.000999986
0.000999986
0.000999986
0.000999986
0.000999986
0.000999986
0.000999986
0.000999986
0.000999986
0.000999986
0.000999986
0.000999986
0.000999986
0.000999986
0.000999986
0.000999986
0.000999986
0.000999986
0.000999986
0.000999986
0.000999986
0.000999986
0.000999986
0.000999986
0.000999986
0.000999986
0.000999986
0.000999986
0.000999986
0.000999986
0.000999986
0.000999986
0.000999986
0.000999986
0.000999985
0.00107647
0.00107159
0.00102482
0.0010071
0.00100487
0.00100503
0.00100519
0.00100533
0.00100547
0.00100559
0.0010057
0.00100581
0.00100591
0.001006
0.00100609
0.00100616
0.00100623
0.0010063
0.00100635
0.0010064
0.00100645
0.00100648
0.00100651
0.00100653
0.00100654
0.00100655
0.00100655
0.00100655
0.00100655
0.00100654
0.00100652
0.0010065
0.00100648
0.00100645
0.00100642
0.00100638
0.00100634
0.0010063
0.00100625
0.0010062
0.00100615
0.00100609
0.00100603
0.00100597
0.00100591
0.00100585
0.00100579
0.00100573
0.00100567
0.0010056
0.00100554
0.00100548
0.00100542
0.00100536
0.00100529
0.00100523
0.00100516
0.0010051
0.00100503
0.00100497
0.0010049
0.00100484
0.00100478
0.00100472
0.00100466
0.0010046
0.00100454
0.00100447
0.0010044
0.00100432
0.00100423
0.00100412
0.00100398
0.00100381
0.00100358
0.00100329
0.00100294
0.00100255
0.00100218
0.00100188
0.00100155
0.00100144
0.00100122
0.00100163
0.00100251
0.00100383
0.00100632
0.00100762
0.00101147
0.00101118
0.00102272
0.0010215
0.00101044
0.0010098
0.00100212
0.0010028
0.00100024
0.0010001
0.00100091
0.00100097
0.00100063
0.00100067
0.00100056
0.00100049
0.00100055
0.00100055
0.00100056
0.00100057
0.00100054
0.00100057
0.00100054
0.00100065
0.00100062
0.00100046
0.00100044
0.00100036
0.00100034
0.00100031
0.0010003
0.00100029
0.00100029
0.00100027
0.00100025
0.00100024
0.00100025
0.00100025
0.00100028
0.00100027
0.00100036
0.00100035
0.00100023
0.00100022
0.00100018
0.00100017
0.00100016
0.00100014
0.00100014
0.00100014
0.00100013
0.00100012
0.00100012
0.00100011
0.00100011
0.0010001
0.0010001
0.00100009
0.00100009
0.00100008
0.00100008
0.00100007
0.00100007
0.00100006
0.00100006
0.00100006
0.00100005
0.00100005
0.00100005
0.00100005
0.00100004
0.00100004
0.00100004
0.00100003
0.00100003
0.00100003
0.00100003
0.00100003
0.00100002
0.00100002
0.00100002
0.00100002
0.00100002
0.00100001
0.00100001
0.00100001
0.00100001
0.00100001
0.00100001
0.00100001
0.001
0.001
0.001
0.001
0.001
0.000999999
0.000999999
0.000999998
0.000999997
0.000999996
0.000999995
0.000999995
0.000999994
0.000999993
0.000999993
0.000999992
0.000999992
0.000999991
0.000999991
0.00099999
0.00099999
0.000999989
0.000999989
0.000999988
0.000999988
0.000999988
0.000999988
0.000999987
0.000999987
0.000999987
0.000999986
0.000999986
0.000999986
0.000999986
0.000999986
0.000999986
0.000999985
0.000999985
0.000999985
0.000999985
0.000999985
0.000999985
0.000999984
0.000999984
0.000999984
0.000999984
0.000999984
0.000999984
0.000999984
0.000999984
0.000999984
0.000999984
0.000999984
0.000999984
0.000999983
0.000999983
0.000999983
0.000999983
0.000999983
0.000999983
0.000999983
0.000999983
0.000999983
0.000999983
0.000999983
0.000999983
0.000999983
0.000999982
0.000999982
0.000999982
0.000999982
0.000999982
0.000999982
0.000999982
0.000999982
0.000999982
0.000999982
0.000999982
0.000999982
0.000999982
0.000999982
0.000999982
0.000999982
0.000999981
0.000999981
0.000999981
0.000999981
0.000999981
0.000999981
0.000999981
0.000999981
0.000999981
0.000999981
0.000999981
0.000999981
0.000999981
0.000999981
0.000999981
0.000999981
0.000999981
0.000999981
0.000999981
0.000999981
0.000999981
0.000999981
0.000999981
0.000999981
0.000999981
0.000999981
0.000999981
0.000999981
0.000999981
0.000999981
0.000999981
0.000999981
0.000999981
0.000999981
0.000999981
0.000999981
0.000999981
0.000999981
0.000999981
0.000999981
0.000999981
0.000999981
0.000999981
0.000999981
0.000999981
0.000999981
0.000999981
0.000999981
0.000999981
0.000999981
0.000999981
0.000999981
0.000999981
0.000999981
0.000999981
0.000999981
0.000999981
0.000999981
0.000999981
0.000999981
0.000999981
0.000999981
0.000999981
0.000999981
0.000999981
0.000999981
0.000999981
0.000999981
0.000999981
0.000999981
0.000999981
0.000999981
0.000999981
0.000999981
0.000999981
0.000999981
0.000999981
0.000999981
0.000999981
0.000999981
0.000999981
0.000999981
0.000999981
0.000999981
0.000999981
0.000999981
0.000999981
0.000999981
0.00099998
0.00099998
0.00099998
0.00099998
0.00099998
0.00099998
0.00099998
0.00099998
0.00099998
0.00099998
0.00099998
0.00099998
0.00099998
0.00099998
0.00099998
0.00099998
0.00099998
0.000999979
0.000999979
0.000999979
0.000999979
0.000999979
0.000999979
0.000999979
0.000999979
0.000999979
0.000999979
0.000999979
0.000999979
0.000999979
0.000999979
0.000999979
0.000999979
0.000999979
0.000999979
0.000999978
0.000999978
0.000999978
0.000999978
0.000999978
0.000999978
0.000999978
0.000999978
0.000999978
0.000999978
0.000999978
0.000999978
0.000999978
0.000999978
0.000999978
0.000999978
0.000999978
0.000999978
0.000999978
0.000999978
0.000999977
0.000999977
0.000999977
0.000999977
0.000999977
0.000999977
0.000999977
0.000999977
0.000999977
0.000999977
0.000999977
0.000999977
0.000999977
0.000999977
0.000999977
0.000999977
0.000999977
0.000999977
0.000999977
0.000999977
0.000999977
0.000999977
0.000999977
0.000999977
0.000999977
0.000999977
0.000999977
0.000999977
0.000999977
0.000999977
0.000999977
0.000999977
0.000999977
0.000999977
0.000999977
0.000999977
0.000999977
0.000999977
0.000999977
0.000999977
0.000999977
0.000999977
0.000999977
0.000999977
0.000999977
0.000999977
0.000999977
0.000999977
0.000999977
0.000999977
0.000999977
0.000999977
0.000999978
0.000999977
0.000999976
0.000999976
0.000999975
0.000999975
0.000999975
0.000999975
0.000999975
0.000999975
0.000999975
0.000999975
0.000999975
0.000999975
0.000999975
0.000999974
0.000999974
0.000999974
0.000999974
0.000999974
0.000999974
0.000999974
0.000999974
0.000999974
0.000999974
0.000999974
0.000999975
0.000999975
0.000999975
0.000999975
0.000999975
0.000999975
0.000999975
0.000999976
0.000999976
0.000999976
0.000999976
0.000999976
0.000999976
0.000999976
0.000999977
0.000999977
0.000999977
0.000999977
0.000999978
0.000999978
0.000999978
0.000999978
0.000999978
0.000999979
0.000999979
0.000999979
0.000999979
0.000999979
0.000999979
0.000999979
0.000999979
0.00099998
0.00099998
0.00099998
0.00099998
0.00099998
0.00099998
0.00099998