/*--------------------------------*- C++ -*----------------------------------*\
| =========                 |                                                 |
| \\      /  F ield         | OpenFOAM: The Open Source CFD Toolbox           |
|  \\    /   O peration     | Version:  v2006                                 |
|   \\  /    A nd           | Website:  www.openfoam.com                      |
|    \\/     M anipulation  |                                                 |
\*---------------------------------------------------------------------------*/
FoamFile
{
    version     2.0;
    format      ascii;
    class       volScalarField;
    location    "0.3";
    object      p;
}
// * * * * * * * * * * * * * * * * * * * * * * * * * * * * * * * * * * * * * //

dimensions      [1 -1 -2 0 0 0 0];


internalField   nonuniform List<scalar> 
33000
(
7740.06
7740.37
7740.73
7741.09
7741.42
7741.75
7742.06
7742.36
7742.65
7742.92
7743.18
7743.44
7743.68
7743.91
7744.13
7744.33
7744.53
7744.72
7744.9
7745.07
7745.24
7745.39
7745.54
7745.69
7745.82
7745.95
7746.08
7746.19
7746.31
7746.42
7746.53
7746.63
7746.73
7746.82
7746.92
7747.01
7747.1
7747.19
7747.28
7747.36
7747.44
7747.53
7747.61
7747.69
7747.77
7747.85
7747.92
7748
7748.08
7748.15
7748.22
7748.3
7748.37
7748.43
7748.5
7748.57
7748.63
7748.69
7748.75
7748.8
7748.85
7748.9
7748.95
7748.99
7749.03
7749.07
7749.1
7749.14
7749.16
7749.19
7749.2
7749.22
7749.23
7749.24
7749.25
7749.25
7749.25
7749.25
7749.24
7749.2
7749.18
7749.16
7749.13
7749.1
7749.07
7749.03
7748.99
7748.95
7748.9
7748.86
7748.81
7748.75
7748.7
7748.64
7748.59
7748.53
7748.47
7748.41
7748.35
7748.28
7748.22
7748.15
7748.09
7748.02
7747.96
7747.89
7747.82
7747.76
7747.69
7747.63
7747.56
7747.49
7747.42
7747.36
7747.29
7747.22
7747.15
7747.08
7747
7746.93
7746.86
7746.78
7746.71
7746.63
7746.56
7746.49
7746.41
7746.34
7746.27
7746.2
7746.12
7746.05
7745.98
7745.91
7745.84
7745.77
7745.71
7745.64
7745.57
7745.51
7745.44
7745.38
7745.31
7745.25
7745.19
7745.13
7745.07
7745.01
7744.95
7744.89
7744.83
7744.78
7744.72
7744.67
7744.61
7744.56
7744.51
7744.46
7744.41
7744.36
7744.31
7744.26
7744.21
7744.16
7744.12
7744.07
7744.03
7743.99
7743.94
7743.9
7743.86
7743.82
7743.78
7743.74
7743.7
7743.67
7743.63
7743.59
7743.56
7743.52
7743.49
7743.46
7743.42
7743.39
7743.36
7743.33
7743.3
7743.27
7743.24
7743.21
7743.19
7743.16
7743.13
7743.11
7743.08
7743.06
7743.04
7743.01
7742.99
7742.97
7742.95
7742.92
7742.9
7742.88
7742.86
7742.84
7742.82
7742.81
7742.79
7742.77
7742.75
7742.74
7742.72
7742.7
7742.69
7742.67
7742.66
7742.64
7742.63
7742.61
7742.6
7742.59
7742.57
7742.56
7742.55
7742.54
7742.52
7742.51
7742.5
7742.49
7742.48
7742.47
7742.46
7742.45
7742.44
7742.43
7742.42
7742.41
7742.4
7742.39
7742.39
7742.38
7742.37
7742.36
7742.35
7742.35
7742.34
7742.33
7742.32
7742.32
7742.31
7742.31
7742.3
7742.29
7742.29
7742.28
7742.28
7742.27
7742.26
7742.26
7742.25
7742.25
7742.24
7742.24
7742.23
7742.23
7742.23
7742.22
7742.22
7742.21
7742.21
7742.2
7742.2
7742.2
7742.19
7742.19
7742.19
7742.18
7742.18
7742.18
7742.17
7742.17
7742.17
7742.16
7742.16
7742.16
7742.15
7742.15
7742.15
7742.15
7742.14
7742.14
7742.14
7742.14
7742.14
7742.13
7742.13
7742.13
7742.13
7742.13
7742.12
7742.12
7742.12
7742.12
7742.12
7742.12
7742.11
7742.11
7742.11
7742.11
7742.11
7742.11
7742.11
7742.1
7742.1
7742.1
7742.1
7742.1
7742.1
7742.1
7742.09
7742.09
7742.09
7742.09
7742.09
7742.09
7742.09
7742.09
7742.09
7742.08
7742.08
7742.08
7742.08
7742.08
7742.08
7742.08
7742.08
7742.08
7742.07
7742.07
7742.07
7742.07
7742.07
7742.07
7742.07
7742.07
7742.07
7742.07
7742.07
7742.07
7742.06
7742.06
7742.06
7742.06
7742.06
7742.06
7742.06
7742.06
7742.06
7742.06
7742.06
7742.06
7742.06
7742.06
7742.06
7742.06
7742.06
7742.06
7742.06
7742.06
7742.06
7742.06
7742.06
7742.06
7742.06
7742.06
7742.06
7742.06
7742.06
7742.06
7742.06
7742.06
7742.06
7742.06
7742.06
7742.06
7742.06
7742.06
7742.06
7742.06
7742.06
7742.06
7742.06
7742.06
7742.06
7742.06
7742.06
7742.06
7742.06
7742.06
7742.06
7742.06
7742.06
7742.06
7742.06
7742.06
7742.06
7742.06
7742.06
7742.06
7742.06
7742.06
7742.06
7742.06
7742.06
7742.06
7742.06
7742.06
7742.06
7742.06
7742.06
7742.06
7742.06
7742.06
7742.06
7742.06
7742.06
7742.06
7742.06
7742.06
7742.06
7742.06
7742.06
7742.06
7742.06
7742.06
7742.06
7742.06
7742.06
7742.06
7742.06
7742.06
7742.06
7742.06
7742.06
7742.06
7742.06
7742.06
7742.06
7742.06
7742.06
7742.06
7742.06
7742.06
7742.06
7742.06
7742.06
7742.06
7742.06
7742.06
7742.06
7742.06
7742.06
7742.06
7742.06
7742.06
7742.06
7742.06
7742.06
7742.06
7742.06
7742.06
7742.06
7742.06
7742.05
7742.05
7742.05
7742.05
7742.05
7742.05
7742.05
7742.05
7742.05
7742.05
7742.05
7742.05
7742.05
7742.05
7742.05
7742.05
7742.05
7742.05
7742.05
7742.05
7742.05
7742.05
7742.05
7742.05
7742.05
7742.05
7742.05
7742.05
7742.05
7742.05
7742.05
7742.05
7742.05
7742.05
7742.05
7742.05
7742.05
7742.05
7742.05
7742.05
7742.05
7742.05
7742.05
7742.05
7742.05
7742.05
7742.05
7742.05
7742.05
7742.05
7742.05
7742.05
7742.05
7742.05
7742.05
7742.05
7742.05
7742.05
7742.05
7742.05
7742.05
7742.05
7742.05
7742.05
7742.05
7742.05
7742.05
7742.05
7742.05
7742.05
7742.05
7742.05
7742.05
7742.05
7742.05
7742.05
7543.9
7544.22
7544.58
7544.94
7545.27
7545.6
7545.91
7546.21
7546.49
7546.77
7547.03
7547.29
7547.53
7547.76
7547.97
7548.18
7548.38
7548.57
7548.75
7548.92
7549.09
7549.24
7549.39
7549.53
7549.67
7549.8
7549.92
7550.04
7550.15
7550.26
7550.37
7550.47
7550.57
7550.66
7550.76
7550.85
7550.94
7551.02
7551.11
7551.19
7551.28
7551.36
7551.44
7551.52
7551.6
7551.67
7551.75
7551.83
7551.9
7551.97
7552.05
7552.12
7552.19
7552.25
7552.32
7552.38
7552.44
7552.5
7552.56
7552.61
7552.67
7552.72
7552.76
7552.8
7552.84
7552.88
7552.91
7552.94
7552.97
7552.99
7553.01
7553.03
7553.04
7553.04
7553.05
7553.05
7553.04
7553.04
7553.03
7553.02
7553.01
7553
7552.93
7552.9
7552.87
7552.83
7552.8
7552.75
7552.71
7552.66
7552.61
7552.56
7552.5
7552.45
7552.39
7552.33
7552.27
7552.21
7552.14
7552.08
7552.02
7551.95
7551.89
7551.82
7551.76
7551.69
7551.62
7551.56
7551.49
7551.43
7551.36
7551.29
7551.22
7551.15
7551.08
7551.01
7550.94
7550.87
7550.8
7550.73
7550.66
7550.58
7550.51
7550.43
7550.36
7550.29
7550.21
7550.14
7550.07
7549.99
7549.92
7549.85
7549.78
7549.71
7549.64
7549.57
7549.51
7549.44
7549.37
7549.31
7549.24
7549.18
7549.11
7549.05
7548.99
7548.93
7548.87
7548.81
7548.75
7548.69
7548.63
7548.58
7548.52
7548.47
7548.41
7548.36
7548.31
7548.26
7548.2
7548.15
7548.11
7548.06
7548.01
7547.96
7547.92
7547.87
7547.83
7547.78
7547.74
7547.7
7547.66
7547.62
7547.58
7547.54
7547.5
7547.46
7547.43
7547.39
7547.36
7547.32
7547.29
7547.25
7547.22
7547.19
7547.16
7547.13
7547.1
7547.07
7547.04
7547.01
7546.99
7546.96
7546.93
7546.91
7546.88
7546.86
7546.83
7546.81
7546.79
7546.77
7546.74
7546.72
7546.7
7546.68
7546.66
7546.64
7546.62
7546.6
7546.59
7546.57
7546.55
7546.53
7546.52
7546.5
7546.49
7546.47
7546.46
7546.44
7546.43
7546.41
7546.4
7546.39
7546.37
7546.36
7546.35
7546.34
7546.32
7546.31
7546.3
7546.29
7546.28
7546.27
7546.26
7546.25
7546.24
7546.23
7546.22
7546.21
7546.2
7546.19
7546.18
7546.18
7546.17
7546.16
7546.15
7546.15
7546.14
7546.13
7546.12
7546.12
7546.11
7546.1
7546.1
7546.09
7546.09
7546.08
7546.07
7546.07
7546.06
7546.06
7546.05
7546.05
7546.04
7546.04
7546.03
7546.03
7546.03
7546.02
7546.02
7546.01
7546.01
7546
7546
7546
7545.99
7545.99
7545.99
7545.98
7545.98
7545.98
7545.97
7545.97
7545.97
7545.96
7545.96
7545.96
7545.95
7545.95
7545.95
7545.95
7545.94
7545.94
7545.94
7545.94
7545.94
7545.93
7545.93
7545.93
7545.93
7545.93
7545.92
7545.92
7545.92
7545.92
7545.92
7545.92
7545.91
7545.91
7545.91
7545.91
7545.91
7545.91
7545.91
7545.9
7545.9
7545.9
7545.9
7545.9
7545.9
7545.9
7545.89
7545.89
7545.89
7545.89
7545.89
7545.89
7545.89
7545.89
7545.89
7545.88
7545.88
7545.88
7545.88
7545.88
7545.88
7545.88
7545.88
7545.88
7545.87
7545.87
7545.87
7545.87
7545.87
7545.87
7545.87
7545.87
7545.87
7545.87
7545.87
7545.86
7545.86
7545.86
7545.86
7545.86
7545.86
7545.86
7545.86
7545.86
7545.86
7545.86
7545.86
7545.86
7545.86
7545.86
7545.86
7545.86
7545.86
7545.86
7545.86
7545.86
7545.86
7545.86
7545.86
7545.86
7545.86
7545.86
7545.86
7545.86
7545.86
7545.86
7545.86
7545.86
7545.86
7545.86
7545.86
7545.86
7545.86
7545.86
7545.86
7545.86
7545.86
7545.86
7545.86
7545.86
7545.86
7545.86
7545.86
7545.86
7545.86
7545.86
7545.86
7545.86
7545.86
7545.86
7545.86
7545.86
7545.86
7545.86
7545.86
7545.86
7545.86
7545.86
7545.86
7545.86
7545.86
7545.86
7545.86
7545.86
7545.86
7545.86
7545.86
7545.86
7545.86
7545.86
7545.86
7545.86
7545.86
7545.86
7545.86
7545.86
7545.86
7545.86
7545.86
7545.86
7545.86
7545.86
7545.86
7545.86
7545.86
7545.86
7545.86
7545.86
7545.86
7545.86
7545.86
7545.86
7545.86
7545.86
7545.86
7545.86
7545.86
7545.86
7545.86
7545.86
7545.86
7545.86
7545.86
7545.86
7545.86
7545.86
7545.86
7545.86
7545.86
7545.86
7545.86
7545.86
7545.86
7545.86
7545.86
7545.86
7545.86
7545.86
7545.86
7545.86
7545.86
7545.86
7545.85
7545.85
7545.85
7545.85
7545.85
7545.85
7545.85
7545.85
7545.85
7545.85
7545.85
7545.85
7545.85
7545.85
7545.85
7545.85
7545.85
7545.85
7545.85
7545.85
7545.85
7545.85
7545.85
7545.85
7545.85
7545.85
7545.85
7545.85
7545.85
7545.85
7545.85
7545.85
7545.85
7545.85
7545.85
7545.85
7545.85
7545.85
7545.85
7545.85
7545.85
7545.85
7545.85
7545.85
7545.85
7545.85
7545.85
7545.85
7545.85
7545.85
7545.85
7545.85
7545.85
7545.85
7545.85
7545.85
7545.85
7545.85
7545.85
7545.85
7545.85
7545.85
7545.85
7545.85
7545.85
7545.85
7545.85
7545.85
7545.85
7545.85
7545.85
7545.85
7545.85
7545.85
7347.76
7348.08
7348.45
7348.8
7349.14
7349.47
7349.78
7350.08
7350.37
7350.65
7350.91
7351.17
7351.41
7351.64
7351.86
7352.07
7352.26
7352.45
7352.63
7352.8
7352.97
7353.12
7353.27
7353.41
7353.54
7353.67
7353.79
7353.91
7354.02
7354.13
7354.23
7354.33
7354.43
7354.52
7354.61
7354.7
7354.79
7354.88
7354.96
7355.04
7355.12
7355.21
7355.28
7355.36
7355.44
7355.52
7355.59
7355.66
7355.74
7355.81
7355.88
7355.95
7356.01
7356.08
7356.14
7356.21
7356.27
7356.32
7356.38
7356.43
7356.48
7356.53
7356.58
7356.62
7356.66
7356.69
7356.72
7356.75
7356.78
7356.8
7356.82
7356.83
7356.84
7356.84
7356.85
7356.85
7356.84
7356.83
7356.82
7356.81
7356.79
7356.77
7356.75
7356.73
7356.71
7356.63
7356.6
7356.54
7356.5
7356.46
7356.41
7356.36
7356.3
7356.25
7356.19
7356.13
7356.07
7356.01
7355.94
7355.88
7355.81
7355.75
7355.68
7355.62
7355.55
7355.49
7355.42
7355.36
7355.29
7355.22
7355.15
7355.09
7355.02
7354.95
7354.88
7354.81
7354.74
7354.67
7354.59
7354.52
7354.45
7354.38
7354.3
7354.23
7354.16
7354.08
7354.01
7353.94
7353.86
7353.79
7353.72
7353.65
7353.58
7353.51
7353.44
7353.37
7353.3
7353.24
7353.17
7353.1
7353.04
7352.97
7352.91
7352.85
7352.79
7352.72
7352.66
7352.6
7352.55
7352.49
7352.43
7352.37
7352.32
7352.26
7352.21
7352.16
7352.1
7352.05
7352
7351.95
7351.9
7351.86
7351.81
7351.76
7351.72
7351.67
7351.63
7351.58
7351.54
7351.5
7351.46
7351.42
7351.38
7351.34
7351.3
7351.26
7351.23
7351.19
7351.15
7351.12
7351.09
7351.05
7351.02
7350.99
7350.96
7350.93
7350.9
7350.87
7350.84
7350.81
7350.78
7350.76
7350.73
7350.71
7350.68
7350.66
7350.63
7350.61
7350.59
7350.56
7350.54
7350.52
7350.5
7350.48
7350.46
7350.44
7350.42
7350.4
7350.39
7350.37
7350.35
7350.33
7350.32
7350.3
7350.29
7350.27
7350.26
7350.24
7350.23
7350.21
7350.2
7350.19
7350.17
7350.16
7350.15
7350.13
7350.12
7350.11
7350.1
7350.09
7350.08
7350.07
7350.06
7350.05
7350.04
7350.03
7350.02
7350.01
7350
7349.99
7349.98
7349.98
7349.97
7349.96
7349.95
7349.95
7349.94
7349.93
7349.92
7349.92
7349.91
7349.9
7349.9
7349.89
7349.89
7349.88
7349.87
7349.87
7349.86
7349.86
7349.85
7349.85
7349.84
7349.84
7349.83
7349.83
7349.83
7349.82
7349.82
7349.81
7349.81
7349.8
7349.8
7349.8
7349.79
7349.79
7349.79
7349.78
7349.78
7349.78
7349.77
7349.77
7349.77
7349.76
7349.76
7349.76
7349.75
7349.75
7349.75
7349.75
7349.74
7349.74
7349.74
7349.74
7349.74
7349.73
7349.73
7349.73
7349.73
7349.73
7349.72
7349.72
7349.72
7349.72
7349.72
7349.72
7349.71
7349.71
7349.71
7349.71
7349.71
7349.71
7349.71
7349.7
7349.7
7349.7
7349.7
7349.7
7349.7
7349.7
7349.69
7349.69
7349.69
7349.69
7349.69
7349.69
7349.69
7349.69
7349.69
7349.68
7349.68
7349.68
7349.68
7349.68
7349.68
7349.68
7349.68
7349.68
7349.67
7349.67
7349.67
7349.67
7349.67
7349.67
7349.67
7349.67
7349.67
7349.67
7349.67
7349.67
7349.66
7349.66
7349.66
7349.66
7349.66
7349.66
7349.66
7349.66
7349.66
7349.66
7349.66
7349.66
7349.66
7349.66
7349.66
7349.66
7349.66
7349.66
7349.66
7349.66
7349.66
7349.66
7349.66
7349.66
7349.66
7349.66
7349.66
7349.66
7349.66
7349.66
7349.66
7349.66
7349.66
7349.66
7349.66
7349.66
7349.66
7349.66
7349.66
7349.66
7349.66
7349.66
7349.66
7349.66
7349.66
7349.66
7349.66
7349.66
7349.66
7349.66
7349.66
7349.66
7349.66
7349.66
7349.66
7349.66
7349.66
7349.66
7349.66
7349.66
7349.66
7349.66
7349.66
7349.66
7349.66
7349.66
7349.66
7349.66
7349.66
7349.66
7349.66
7349.66
7349.66
7349.66
7349.66
7349.66
7349.66
7349.66
7349.66
7349.66
7349.66
7349.66
7349.66
7349.66
7349.66
7349.66
7349.66
7349.66
7349.66
7349.66
7349.66
7349.66
7349.66
7349.66
7349.66
7349.66
7349.66
7349.66
7349.66
7349.66
7349.66
7349.66
7349.66
7349.66
7349.66
7349.66
7349.66
7349.66
7349.66
7349.66
7349.66
7349.66
7349.66
7349.66
7349.66
7349.66
7349.66
7349.66
7349.66
7349.66
7349.66
7349.66
7349.66
7349.66
7349.66
7349.66
7349.66
7349.66
7349.65
7349.65
7349.65
7349.65
7349.65
7349.65
7349.65
7349.65
7349.65
7349.65
7349.65
7349.65
7349.65
7349.65
7349.65
7349.65
7349.65
7349.65
7349.65
7349.65
7349.65
7349.65
7349.65
7349.65
7349.65
7349.65
7349.65
7349.65
7349.65
7349.65
7349.65
7349.65
7349.65
7349.65
7349.65
7349.65
7349.65
7349.65
7349.65
7349.65
7349.65
7349.65
7349.65
7349.65
7349.65
7349.65
7349.65
7349.65
7349.65
7349.65
7349.65
7349.65
7349.65
7349.65
7349.65
7349.65
7349.65
7349.65
7349.65
7349.65
7349.65
7349.65
7349.65
7349.65
7349.65
7349.65
7349.65
7349.65
7349.65
7349.65
7349.65
7349.65
7151.65
7151.98
7152.34
7152.7
7153.04
7153.37
7153.68
7153.98
7154.27
7154.55
7154.82
7155.07
7155.31
7155.54
7155.76
7155.97
7156.17
7156.35
7156.53
7156.7
7156.86
7157.02
7157.16
7157.3
7157.44
7157.56
7157.68
7157.8
7157.91
7158.01
7158.12
7158.21
7158.31
7158.4
7158.49
7158.58
7158.66
7158.75
7158.83
7158.91
7158.99
7159.07
7159.14
7159.22
7159.29
7159.37
7159.44
7159.51
7159.58
7159.65
7159.72
7159.78
7159.85
7159.91
7159.97
7160.03
7160.09
7160.15
7160.2
7160.25
7160.3
7160.35
7160.39
7160.43
7160.47
7160.5
7160.53
7160.56
7160.58
7160.6
7160.62
7160.63
7160.64
7160.64
7160.64
7160.64
7160.63
7160.63
7160.61
7160.6
7160.58
7160.55
7160.53
7160.5
7160.46
7160.43
7160.4
7160.38
7160.34
7160.25
7160.21
7160.15
7160.1
7160.04
7159.99
7159.92
7159.86
7159.8
7159.74
7159.67
7159.61
7159.54
7159.48
7159.41
7159.35
7159.28
7159.21
7159.15
7159.08
7159.02
7158.95
7158.88
7158.81
7158.74
7158.67
7158.6
7158.53
7158.46
7158.39
7158.31
7158.24
7158.17
7158.09
7158.02
7157.95
7157.88
7157.8
7157.73
7157.66
7157.59
7157.51
7157.44
7157.37
7157.3
7157.23
7157.16
7157.1
7157.03
7156.96
7156.9
7156.83
7156.77
7156.7
7156.64
7156.58
7156.52
7156.46
7156.4
7156.34
7156.28
7156.23
7156.17
7156.11
7156.06
7156.01
7155.95
7155.9
7155.85
7155.8
7155.75
7155.7
7155.65
7155.6
7155.56
7155.51
7155.47
7155.42
7155.38
7155.34
7155.3
7155.25
7155.21
7155.17
7155.14
7155.1
7155.06
7155.02
7154.99
7154.95
7154.92
7154.88
7154.85
7154.82
7154.79
7154.76
7154.73
7154.7
7154.67
7154.64
7154.61
7154.58
7154.56
7154.53
7154.5
7154.48
7154.46
7154.43
7154.41
7154.39
7154.36
7154.34
7154.32
7154.3
7154.28
7154.26
7154.24
7154.22
7154.2
7154.18
7154.17
7154.15
7154.13
7154.12
7154.1
7154.08
7154.07
7154.05
7154.04
7154.02
7154.01
7154
7153.98
7153.97
7153.96
7153.95
7153.93
7153.92
7153.91
7153.9
7153.89
7153.88
7153.87
7153.86
7153.85
7153.84
7153.83
7153.82
7153.81
7153.8
7153.79
7153.78
7153.78
7153.77
7153.76
7153.75
7153.74
7153.74
7153.73
7153.72
7153.72
7153.71
7153.7
7153.7
7153.69
7153.69
7153.68
7153.67
7153.67
7153.66
7153.66
7153.65
7153.65
7153.64
7153.64
7153.63
7153.63
7153.62
7153.62
7153.62
7153.61
7153.61
7153.6
7153.6
7153.6
7153.59
7153.59
7153.59
7153.58
7153.58
7153.58
7153.57
7153.57
7153.57
7153.56
7153.56
7153.56
7153.56
7153.55
7153.55
7153.55
7153.54
7153.54
7153.54
7153.54
7153.54
7153.53
7153.53
7153.53
7153.53
7153.53
7153.52
7153.52
7153.52
7153.52
7153.52
7153.52
7153.51
7153.51
7153.51
7153.51
7153.51
7153.51
7153.51
7153.5
7153.5
7153.5
7153.5
7153.5
7153.5
7153.5
7153.49
7153.49
7153.49
7153.49
7153.49
7153.49
7153.49
7153.49
7153.49
7153.48
7153.48
7153.48
7153.48
7153.48
7153.48
7153.48
7153.48
7153.48
7153.47
7153.47
7153.47
7153.47
7153.47
7153.47
7153.47
7153.47
7153.47
7153.47
7153.47
7153.47
7153.46
7153.46
7153.46
7153.46
7153.46
7153.46
7153.46
7153.46
7153.46
7153.46
7153.46
7153.46
7153.46
7153.46
7153.46
7153.46
7153.46
7153.46
7153.46
7153.46
7153.46
7153.46
7153.46
7153.46
7153.46
7153.46
7153.46
7153.46
7153.46
7153.46
7153.46
7153.46
7153.46
7153.46
7153.46
7153.46
7153.46
7153.46
7153.46
7153.46
7153.46
7153.46
7153.46
7153.46
7153.46
7153.46
7153.46
7153.46
7153.46
7153.46
7153.46
7153.46
7153.46
7153.46
7153.46
7153.46
7153.46
7153.46
7153.46
7153.46
7153.46
7153.46
7153.46
7153.46
7153.46
7153.46
7153.46
7153.46
7153.46
7153.46
7153.46
7153.46
7153.46
7153.46
7153.46
7153.46
7153.46
7153.46
7153.46
7153.46
7153.46
7153.46
7153.46
7153.46
7153.46
7153.46
7153.46
7153.46
7153.46
7153.46
7153.46
7153.46
7153.46
7153.46
7153.46
7153.46
7153.46
7153.46
7153.46
7153.46
7153.46
7153.46
7153.46
7153.46
7153.46
7153.46
7153.46
7153.46
7153.46
7153.46
7153.46
7153.46
7153.46
7153.46
7153.46
7153.46
7153.46
7153.46
7153.46
7153.46
7153.46
7153.46
7153.46
7153.46
7153.46
7153.46
7153.46
7153.46
7153.46
7153.45
7153.45
7153.45
7153.45
7153.45
7153.45
7153.45
7153.45
7153.45
7153.45
7153.45
7153.45
7153.45
7153.45
7153.45
7153.45
7153.45
7153.45
7153.45
7153.45
7153.45
7153.45
7153.45
7153.45
7153.45
7153.45
7153.45
7153.45
7153.45
7153.45
7153.45
7153.45
7153.45
7153.45
7153.45
7153.45
7153.45
7153.45
7153.45
7153.45
7153.45
7153.45
7153.45
7153.45
7153.45
7153.45
7153.45
7153.45
7153.45
7153.45
7153.45
7153.45
7153.45
7153.45
7153.45
7153.45
7153.45
7153.45
7153.45
7153.45
7153.45
7153.45
7153.45
7153.45
7153.45
7153.45
7153.45
7153.45
7153.45
7153.45
7153.45
6955.55
6955.88
6956.25
6956.61
6956.95
6957.28
6957.6
6957.9
6958.19
6958.47
6958.73
6958.99
6959.23
6959.46
6959.68
6959.89
6960.08
6960.27
6960.45
6960.62
6960.78
6960.93
6961.08
6961.22
6961.35
6961.47
6961.59
6961.71
6961.82
6961.92
6962.02
6962.12
6962.21
6962.3
6962.39
6962.47
6962.55
6962.64
6962.71
6962.79
6962.87
6962.94
6963.02
6963.09
6963.16
6963.23
6963.3
6963.37
6963.43
6963.5
6963.56
6963.63
6963.69
6963.75
6963.81
6963.87
6963.93
6963.98
6964.03
6964.08
6964.13
6964.17
6964.21
6964.25
6964.28
6964.32
6964.34
6964.37
6964.39
6964.4
6964.42
6964.43
6964.43
6964.44
6964.44
6964.43
6964.43
6964.42
6964.4
6964.39
6964.37
6964.34
6964.32
6964.29
6964.25
6964.22
6964.18
6964.14
6964.1
6964.06
6964.03
6963.98
6963.89
6963.84
6963.78
6963.72
6963.66
6963.6
6963.53
6963.46
6963.4
6963.33
6963.27
6963.2
6963.14
6963.07
6963
6962.94
6962.87
6962.8
6962.73
6962.67
6962.6
6962.53
6962.46
6962.39
6962.32
6962.24
6962.17
6962.1
6962.03
6961.95
6961.88
6961.81
6961.74
6961.66
6961.59
6961.52
6961.45
6961.38
6961.3
6961.23
6961.16
6961.09
6961.02
6960.96
6960.89
6960.82
6960.75
6960.69
6960.62
6960.56
6960.5
6960.43
6960.37
6960.31
6960.25
6960.19
6960.13
6960.07
6960.02
6959.96
6959.91
6959.85
6959.8
6959.75
6959.69
6959.64
6959.59
6959.54
6959.49
6959.45
6959.4
6959.35
6959.31
6959.26
6959.22
6959.17
6959.13
6959.09
6959.05
6959.01
6958.97
6958.93
6958.89
6958.86
6958.82
6958.78
6958.75
6958.71
6958.68
6958.65
6958.61
6958.58
6958.55
6958.52
6958.49
6958.46
6958.43
6958.41
6958.38
6958.35
6958.33
6958.3
6958.28
6958.25
6958.23
6958.21
6958.18
6958.16
6958.14
6958.12
6958.1
6958.08
6958.06
6958.04
6958.02
6958
6957.98
6957.96
6957.95
6957.93
6957.91
6957.9
6957.88
6957.87
6957.85
6957.84
6957.82
6957.81
6957.8
6957.78
6957.77
6957.76
6957.74
6957.73
6957.72
6957.71
6957.7
6957.69
6957.68
6957.67
6957.66
6957.65
6957.64
6957.63
6957.62
6957.61
6957.6
6957.59
6957.58
6957.57
6957.57
6957.56
6957.55
6957.54
6957.54
6957.53
6957.52
6957.52
6957.51
6957.5
6957.5
6957.49
6957.49
6957.48
6957.47
6957.47
6957.46
6957.46
6957.45
6957.45
6957.44
6957.44
6957.43
6957.43
6957.42
6957.42
6957.42
6957.41
6957.41
6957.4
6957.4
6957.4
6957.39
6957.39
6957.39
6957.38
6957.38
6957.38
6957.37
6957.37
6957.37
6957.36
6957.36
6957.36
6957.36
6957.35
6957.35
6957.35
6957.35
6957.34
6957.34
6957.34
6957.34
6957.33
6957.33
6957.33
6957.33
6957.33
6957.32
6957.32
6957.32
6957.32
6957.32
6957.32
6957.31
6957.31
6957.31
6957.31
6957.31
6957.31
6957.31
6957.3
6957.3
6957.3
6957.3
6957.3
6957.3
6957.3
6957.3
6957.29
6957.29
6957.29
6957.29
6957.29
6957.29
6957.29
6957.29
6957.28
6957.28
6957.28
6957.28
6957.28
6957.28
6957.28
6957.28
6957.28
6957.27
6957.27
6957.27
6957.27
6957.27
6957.27
6957.27
6957.27
6957.27
6957.27
6957.27
6957.27
6957.27
6957.26
6957.26
6957.26
6957.26
6957.26
6957.26
6957.26
6957.26
6957.26
6957.26
6957.26
6957.26
6957.26
6957.26
6957.26
6957.26
6957.26
6957.26
6957.26
6957.26
6957.26
6957.26
6957.26
6957.26
6957.26
6957.26
6957.26
6957.26
6957.26
6957.26
6957.26
6957.26
6957.26
6957.26
6957.26
6957.26
6957.26
6957.26
6957.26
6957.26
6957.26
6957.26
6957.26
6957.26
6957.26
6957.26
6957.26
6957.26
6957.26
6957.26
6957.26
6957.26
6957.26
6957.26
6957.26
6957.26
6957.26
6957.26
6957.26
6957.26
6957.26
6957.26
6957.26
6957.26
6957.26
6957.26
6957.26
6957.26
6957.26
6957.26
6957.26
6957.26
6957.26
6957.26
6957.26
6957.26
6957.26
6957.26
6957.26
6957.26
6957.26
6957.26
6957.26
6957.26
6957.26
6957.26
6957.26
6957.26
6957.26
6957.26
6957.26
6957.26
6957.26
6957.26
6957.26
6957.26
6957.26
6957.26
6957.26
6957.26
6957.26
6957.26
6957.26
6957.26
6957.26
6957.26
6957.26
6957.26
6957.26
6957.26
6957.26
6957.26
6957.26
6957.26
6957.26
6957.26
6957.26
6957.26
6957.26
6957.26
6957.26
6957.26
6957.26
6957.26
6957.26
6957.26
6957.26
6957.26
6957.26
6957.25
6957.25
6957.25
6957.25
6957.25
6957.25
6957.25
6957.25
6957.25
6957.25
6957.25
6957.25
6957.25
6957.25
6957.25
6957.25
6957.25
6957.25
6957.25
6957.25
6957.25
6957.25
6957.25
6957.25
6957.25
6957.25
6957.25
6957.25
6957.25
6957.25
6957.25
6957.25
6957.25
6957.25
6957.25
6957.25
6957.25
6957.25
6957.25
6957.25
6957.25
6957.25
6957.25
6957.25
6957.25
6957.25
6957.25
6957.25
6957.25
6957.25
6957.25
6957.25
6957.25
6957.25
6957.25
6957.25
6957.25
6957.25
6957.25
6957.25
6957.25
6957.25
6957.25
6957.25
6957.25
6957.25
6957.25
6957.25
6957.25
6957.25
6759.47
6759.8
6760.17
6760.53
6760.87
6761.21
6761.52
6761.83
6762.12
6762.4
6762.66
6762.92
6763.16
6763.39
6763.61
6763.82
6764.02
6764.2
6764.38
6764.55
6764.71
6764.86
6765.01
6765.14
6765.27
6765.4
6765.52
6765.63
6765.74
6765.84
6765.94
6766.03
6766.12
6766.21
6766.29
6766.38
6766.46
6766.53
6766.61
6766.68
6766.75
6766.83
6766.9
6766.96
6767.03
6767.1
6767.17
6767.23
6767.29
6767.36
6767.42
6767.48
6767.54
6767.6
6767.66
6767.71
6767.76
6767.82
6767.86
6767.91
6767.95
6768
6768.03
6768.07
6768.1
6768.13
6768.15
6768.17
6768.19
6768.21
6768.22
6768.22
6768.23
6768.23
6768.23
6768.22
6768.22
6768.2
6768.19
6768.17
6768.15
6768.13
6768.1
6768.07
6768.04
6768
6767.96
6767.92
6767.88
6767.83
6767.78
6767.74
6767.69
6767.65
6767.6
6767.5
6767.44
6767.38
6767.32
6767.25
6767.19
6767.12
6767.06
6766.99
6766.92
6766.85
6766.79
6766.72
6766.65
6766.58
6766.52
6766.45
6766.38
6766.31
6766.24
6766.17
6766.1
6766.03
6765.95
6765.88
6765.81
6765.74
6765.67
6765.59
6765.52
6765.45
6765.38
6765.3
6765.23
6765.16
6765.09
6765.02
6764.95
6764.88
6764.81
6764.74
6764.68
6764.61
6764.54
6764.48
6764.41
6764.35
6764.28
6764.22
6764.16
6764.1
6764.04
6763.98
6763.92
6763.86
6763.81
6763.75
6763.7
6763.64
6763.59
6763.54
6763.48
6763.43
6763.38
6763.33
6763.28
6763.24
6763.19
6763.14
6763.1
6763.05
6763.01
6762.97
6762.92
6762.88
6762.84
6762.8
6762.76
6762.72
6762.69
6762.65
6762.61
6762.58
6762.54
6762.51
6762.47
6762.44
6762.41
6762.38
6762.35
6762.32
6762.29
6762.26
6762.23
6762.2
6762.17
6762.15
6762.12
6762.1
6762.07
6762.05
6762.02
6762
6761.98
6761.96
6761.93
6761.91
6761.89
6761.87
6761.85
6761.83
6761.82
6761.8
6761.78
6761.76
6761.74
6761.73
6761.71
6761.7
6761.68
6761.66
6761.65
6761.63
6761.62
6761.61
6761.59
6761.58
6761.57
6761.55
6761.54
6761.53
6761.52
6761.51
6761.5
6761.49
6761.48
6761.46
6761.45
6761.44
6761.44
6761.43
6761.42
6761.41
6761.4
6761.39
6761.38
6761.37
6761.37
6761.36
6761.35
6761.34
6761.34
6761.33
6761.32
6761.32
6761.31
6761.3
6761.3
6761.29
6761.29
6761.28
6761.27
6761.27
6761.26
6761.26
6761.25
6761.25
6761.24
6761.24
6761.23
6761.23
6761.22
6761.22
6761.22
6761.21
6761.21
6761.2
6761.2
6761.2
6761.19
6761.19
6761.19
6761.18
6761.18
6761.18
6761.17
6761.17
6761.17
6761.16
6761.16
6761.16
6761.16
6761.15
6761.15
6761.15
6761.15
6761.14
6761.14
6761.14
6761.14
6761.13
6761.13
6761.13
6761.13
6761.13
6761.12
6761.12
6761.12
6761.12
6761.12
6761.12
6761.11
6761.11
6761.11
6761.11
6761.11
6761.11
6761.11
6761.1
6761.1
6761.1
6761.1
6761.1
6761.1
6761.1
6761.1
6761.09
6761.09
6761.09
6761.09
6761.09
6761.09
6761.09
6761.09
6761.08
6761.08
6761.08
6761.08
6761.08
6761.08
6761.08
6761.08
6761.08
6761.08
6761.07
6761.07
6761.07
6761.07
6761.07
6761.07
6761.07
6761.07
6761.07
6761.07
6761.07
6761.07
6761.07
6761.06
6761.06
6761.06
6761.06
6761.06
6761.06
6761.06
6761.06
6761.06
6761.06
6761.06
6761.06
6761.06
6761.06
6761.06
6761.06
6761.06
6761.06
6761.06
6761.06
6761.06
6761.06
6761.06
6761.06
6761.06
6761.06
6761.06
6761.06
6761.06
6761.06
6761.06
6761.06
6761.06
6761.06
6761.06
6761.06
6761.06
6761.06
6761.06
6761.06
6761.06
6761.06
6761.06
6761.06
6761.06
6761.06
6761.06
6761.06
6761.06
6761.06
6761.06
6761.06
6761.06
6761.06
6761.06
6761.06
6761.06
6761.06
6761.06
6761.06
6761.06
6761.06
6761.06
6761.06
6761.06
6761.06
6761.06
6761.06
6761.06
6761.06
6761.06
6761.06
6761.06
6761.06
6761.06
6761.06
6761.06
6761.06
6761.06
6761.06
6761.06
6761.06
6761.06
6761.06
6761.06
6761.06
6761.06
6761.06
6761.06
6761.06
6761.06
6761.06
6761.06
6761.06
6761.06
6761.06
6761.06
6761.06
6761.06
6761.06
6761.06
6761.06
6761.06
6761.06
6761.06
6761.06
6761.06
6761.06
6761.06
6761.06
6761.06
6761.06
6761.06
6761.06
6761.06
6761.06
6761.06
6761.06
6761.06
6761.06
6761.06
6761.06
6761.06
6761.06
6761.06
6761.06
6761.06
6761.06
6761.05
6761.05
6761.05
6761.05
6761.05
6761.05
6761.05
6761.05
6761.05
6761.05
6761.05
6761.05
6761.05
6761.05
6761.05
6761.05
6761.05
6761.05
6761.05
6761.05
6761.05
6761.05
6761.05
6761.05
6761.05
6761.05
6761.05
6761.05
6761.05
6761.05
6761.05
6761.05
6761.05
6761.05
6761.05
6761.05
6761.05
6761.05
6761.05
6761.05
6761.05
6761.05
6761.05
6761.05
6761.05
6761.05
6761.05
6761.05
6761.05
6761.05
6761.05
6761.05
6761.05
6761.05
6761.05
6761.05
6761.05
6761.05
6761.05
6761.05
6761.05
6761.05
6761.05
6761.05
6761.05
6761.05
6761.05
6761.05
6761.05
6761.05
6563.4
6563.73
6564.1
6564.47
6564.81
6565.15
6565.47
6565.77
6566.06
6566.34
6566.61
6566.87
6567.11
6567.34
6567.56
6567.76
6567.96
6568.15
6568.32
6568.49
6568.65
6568.8
6568.94
6569.08
6569.21
6569.33
6569.44
6569.55
6569.66
6569.76
6569.85
6569.95
6570.03
6570.12
6570.2
6570.28
6570.35
6570.43
6570.5
6570.57
6570.64
6570.71
6570.78
6570.84
6570.91
6570.97
6571.04
6571.1
6571.16
6571.22
6571.28
6571.34
6571.39
6571.45
6571.5
6571.55
6571.6
6571.65
6571.7
6571.74
6571.78
6571.82
6571.85
6571.88
6571.91
6571.94
6571.96
6571.98
6571.99
6572
6572.01
6572.02
6572.02
6572.02
6572.02
6572.01
6572
6571.99
6571.97
6571.95
6571.93
6571.91
6571.88
6571.85
6571.81
6571.78
6571.74
6571.7
6571.65
6571.61
6571.56
6571.51
6571.45
6571.4
6571.35
6571.29
6571.25
6571.2
6571.09
6571.03
6570.97
6570.9
6570.84
6570.77
6570.7
6570.63
6570.57
6570.5
6570.43
6570.36
6570.29
6570.22
6570.15
6570.09
6570.02
6569.95
6569.87
6569.8
6569.73
6569.66
6569.59
6569.52
6569.44
6569.37
6569.3
6569.23
6569.16
6569.08
6569.01
6568.94
6568.87
6568.8
6568.73
6568.66
6568.59
6568.53
6568.46
6568.39
6568.33
6568.26
6568.2
6568.13
6568.07
6568.01
6567.94
6567.88
6567.82
6567.76
6567.71
6567.65
6567.59
6567.54
6567.48
6567.43
6567.37
6567.32
6567.27
6567.22
6567.17
6567.12
6567.07
6567.02
6566.98
6566.93
6566.89
6566.84
6566.8
6566.76
6566.71
6566.67
6566.63
6566.59
6566.55
6566.52
6566.48
6566.44
6566.4
6566.37
6566.33
6566.3
6566.27
6566.23
6566.2
6566.17
6566.14
6566.11
6566.08
6566.05
6566.02
6566
6565.97
6565.94
6565.92
6565.89
6565.87
6565.84
6565.82
6565.8
6565.77
6565.75
6565.73
6565.71
6565.69
6565.67
6565.65
6565.63
6565.61
6565.59
6565.57
6565.56
6565.54
6565.52
6565.51
6565.49
6565.48
6565.46
6565.45
6565.43
6565.42
6565.4
6565.39
6565.38
6565.37
6565.35
6565.34
6565.33
6565.32
6565.31
6565.29
6565.28
6565.27
6565.26
6565.25
6565.24
6565.23
6565.22
6565.22
6565.21
6565.2
6565.19
6565.18
6565.17
6565.16
6565.16
6565.15
6565.14
6565.14
6565.13
6565.12
6565.12
6565.11
6565.1
6565.1
6565.09
6565.08
6565.08
6565.07
6565.07
6565.06
6565.06
6565.05
6565.05
6565.04
6565.04
6565.03
6565.03
6565.02
6565.02
6565.02
6565.01
6565.01
6565
6565
6565
6564.99
6564.99
6564.99
6564.98
6564.98
6564.98
6564.97
6564.97
6564.97
6564.96
6564.96
6564.96
6564.96
6564.95
6564.95
6564.95
6564.95
6564.94
6564.94
6564.94
6564.94
6564.93
6564.93
6564.93
6564.93
6564.93
6564.93
6564.92
6564.92
6564.92
6564.92
6564.92
6564.92
6564.91
6564.91
6564.91
6564.91
6564.91
6564.91
6564.91
6564.9
6564.9
6564.9
6564.9
6564.9
6564.9
6564.9
6564.89
6564.89
6564.89
6564.89
6564.89
6564.89
6564.89
6564.89
6564.89
6564.88
6564.88
6564.88
6564.88
6564.88
6564.88
6564.88
6564.88
6564.88
6564.88
6564.87
6564.87
6564.87
6564.87
6564.87
6564.87
6564.87
6564.87
6564.87
6564.87
6564.87
6564.87
6564.87
6564.86
6564.86
6564.86
6564.86
6564.86
6564.86
6564.86
6564.86
6564.86
6564.86
6564.86
6564.86
6564.86
6564.86
6564.86
6564.86
6564.86
6564.86
6564.86
6564.86
6564.86
6564.86
6564.86
6564.86
6564.86
6564.86
6564.86
6564.86