/*--------------------------------*- C++ -*----------------------------------*\
| =========                 |                                                 |
| \\      /  F ield         | OpenFOAM: The Open Source CFD Toolbox           |
|  \\    /   O peration     | Version:  v2006                                 |
|   \\  /    A nd           | Website:  www.openfoam.com                      |
|    \\/     M anipulation  |                                                 |
\*---------------------------------------------------------------------------*/
FoamFile
{
    version     2.0;
    format      ascii;
    class       volVectorField;
    location    "0.3";
    object      U;
}
// * * * * * * * * * * * * * * * * * * * * * * * * * * * * * * * * * * * * * //

dimensions      [0 1 -1 0 0 0 0];


internalField   nonuniform List<vector> 
33000
(
(0.00628088 0 -2.91372e-05)
(0.00949626 0 1.20853e-05)
(0.0087571 0 1.35186e-05)
(0.00859791 0 1.42831e-05)
(0.0086012 0 1.70198e-05)
(0.00857729 0 2.01284e-05)
(0.00854782 0 2.34185e-05)
(0.00851522 0 2.64842e-05)
(0.0084793 0 2.94707e-05)
(0.00843991 0 3.23121e-05)
(0.00839722 0 3.50389e-05)
(0.00835155 0 3.77315e-05)
(0.00830288 0 4.03966e-05)
(0.00825105 0 4.30214e-05)
(0.008196 0 4.55711e-05)
(0.00813796 0 4.80088e-05)
(0.00807715 0 5.03714e-05)
(0.00801363 0 5.26461e-05)
(0.00794733 0 5.47953e-05)
(0.00787832 0 5.68401e-05)
(0.00780676 0 5.87721e-05)
(0.00773285 0 6.06277e-05)
(0.0076568 0 6.23305e-05)
(0.00757884 0 6.38895e-05)
(0.00749914 0 6.53537e-05)
(0.00741781 0 6.67478e-05)
(0.00733498 0 6.8074e-05)
(0.0072507 0 6.93615e-05)
(0.00716499 0 7.06285e-05)
(0.00707787 0 7.18515e-05)
(0.00698935 0 7.29959e-05)
(0.0068995 0 7.40565e-05)
(0.00680839 0 7.50438e-05)
(0.00671613 0 7.59463e-05)
(0.00662286 0 7.67335e-05)
(0.00652873 0 7.73929e-05)
(0.00643388 0 7.79406e-05)
(0.00633841 0 7.8383e-05)
(0.00624238 0 7.8696e-05)
(0.00614591 0 7.88505e-05)
(0.00604911 0 7.88501e-05)
(0.00595209 0 7.87233e-05)
(0.00585501 0 7.84918e-05)
(0.00575799 0 7.81638e-05)
(0.00566119 0 7.77448e-05)
(0.00556476 0 7.72548e-05)
(0.00546883 0 7.67264e-05)
(0.00537348 0 7.61904e-05)
(0.00527878 0 7.56721e-05)
(0.00518478 0 7.51847e-05)
(0.00509154 0 7.47287e-05)
(0.00499911 0 7.42973e-05)
(0.00490755 0 7.38916e-05)
(0.00481689 0 7.35267e-05)
(0.0047271 0 7.3211e-05)
(0.00463813 0 7.29303e-05)
(0.00454991 0 7.26625e-05)
(0.00446237 0 7.23897e-05)
(0.00437543 0 7.21221e-05)
(0.00428898 0 7.18959e-05)
(0.0042029 0 7.17435e-05)
(0.00411704 0 7.16864e-05)
(0.00403132 0 7.17435e-05)
(0.00394563 0 7.19535e-05)
(0.00385984 0 7.23752e-05)
(0.00377376 0 7.3069e-05)
(0.00368714 0 7.40938e-05)
(0.00359956 0 7.55611e-05)
(0.00351041 0 7.76825e-05)
(0.00341869 0 8.07538e-05)
(0.00332294 0 8.51649e-05)
(0.003221 0 9.1634e-05)
(0.00310942 0 0.000101625)
(0.00298255 0 0.000117859)
(0.00283097 0 0.000145395)
(0.00264078 0 0.000194284)
(0.00235897 0 0.000282844)
(0.00229709 0 0.000461863)
(0.0012889 0 0.00021798)
(0.00138543 0 1.57592e-05)
(0.00115311 0 -7.18379e-05)
(0.0011951 0 -0.000132171)
(0.00118736 0 1.97169e-05)
(0.00115855 0 2.6798e-05)
(0.00118347 0 3.28361e-05)
(0.00117719 0 2.32098e-05)
(0.00114489 0 1.53277e-05)
(0.00112603 0 6.19344e-06)
(0.00111068 0 5.70677e-07)
(0.00109913 0 9.97803e-06)
(0.00108362 0 1.09566e-05)
(0.00107285 0 1.22476e-05)
(0.0010596 0 1.2946e-05)
(0.00104473 0 1.28928e-05)
(0.0010304 0 1.31328e-05)
(0.00101489 0 1.4053e-05)
(0.00099911 0 1.49499e-05)
(0.000980596 0 1.57694e-05)
(0.000966848 0 1.84113e-05)
(0.000938495 0 1.76335e-05)
(0.000924706 0 1.44582e-05)
(0.000906269 0 1.15725e-05)
(0.000891549 0 1.10386e-05)
(0.000875717 0 1.29884e-05)
(0.000859872 0 1.30844e-05)
(0.000844791 0 1.31476e-05)
(0.000829389 0 1.31028e-05)
(0.000813934 0 1.29205e-05)
(0.000798838 0 1.27042e-05)
(0.000784039 0 1.25743e-05)
(0.000769489 0 1.25707e-05)
(0.000755058 0 1.25884e-05)
(0.000740783 0 1.26299e-05)
(0.000726358 0 1.27674e-05)
(0.000712187 0 1.32444e-05)
(0.000695664 0 1.38461e-05)
(0.000685067 0 1.6345e-05)
(0.000657713 0 1.52255e-05)
(0.000647964 0 1.17105e-05)
(0.000633492 0 8.48029e-06)
(0.000622923 0 7.79718e-06)
(0.000611635 0 9.56755e-06)
(0.000600188 0 9.60577e-06)
(0.00058941 0 9.49547e-06)
(0.000578386 0 9.38102e-06)
(0.000567257 0 9.13422e-06)
(0.000556374 0 8.95942e-06)
(0.00054557 0 8.87209e-06)
(0.000534871 0 8.74187e-06)
(0.000524326 0 8.60868e-06)
(0.000513905 0 8.4713e-06)
(0.000503624 0 8.32015e-06)
(0.000493491 0 8.18741e-06)
(0.000483488 0 8.05688e-06)
(0.000473634 0 7.90959e-06)
(0.000463952 0 7.7566e-06)
(0.000454433 0 7.61847e-06)
(0.000445054 0 7.49173e-06)
(0.000435814 0 7.35887e-06)
(0.000426729 0 7.2141e-06)
(0.000417811 0 7.06806e-06)
(0.00040905 0 6.93476e-06)
(0.000400424 0 6.8074e-06)
(0.000391942 0 6.66718e-06)
(0.000383616 0 6.53551e-06)
(0.000375428 0 6.41973e-06)
(0.000367365 0 6.29998e-06)
(0.00035944 0 6.16662e-06)
(0.000351667 0 6.03576e-06)
(0.000344032 0 5.91625e-06)
(0.000336526 0 5.79647e-06)
(0.000329155 0 5.67075e-06)
(0.000321922 0 5.55127e-06)
(0.000314817 0 5.43839e-06)
(0.000307838 0 5.32145e-06)
(0.000300992 0 5.20266e-06)
(0.000294278 0 5.09002e-06)
(0.000287689 0 4.97716e-06)
(0.000281227 0 4.86193e-06)
(0.000274888 0 4.7564e-06)
(0.000268661 0 4.66008e-06)
(0.000262542 0 4.55253e-06)
(0.000256547 0 4.43065e-06)
(0.000250684 0 4.31747e-06)
(0.000244935 0 4.22325e-06)
(0.00023929 0 4.13121e-06)
(0.000233756 0 4.0272e-06)
(0.000228343 0 3.92263e-06)
(0.000223041 0 3.83387e-06)
(0.000217831 0 3.7531e-06)
(0.000212717 0 3.65938e-06)
(0.000207715 0 3.55738e-06)
(0.000202822 0 3.46965e-06)
(0.000198019 0 3.39292e-06)
(0.000193307 0 3.30789e-06)
(0.000188698 0 3.21865e-06)
(0.000184187 0 3.14111e-06)
(0.000179761 0 3.07032e-06)
(0.000175422 0 2.99331e-06)
(0.000171177 0 2.91473e-06)
(0.000167023 0 2.84451e-06)
(0.000162951 0 2.77614e-06)
(0.000158967 0 2.70008e-06)
(0.000155079 0 2.6216e-06)
(0.000151285 0 2.55052e-06)
(0.000147576 0 2.48459e-06)
(0.00014395 0 2.41769e-06)
(0.00014041 0 2.35021e-06)
(0.000136955 0 2.28615e-06)
(0.00013358 0 2.22392e-06)
(0.000130283 0 2.15926e-06)
(0.000127069 0 2.09105e-06)
(0.00012394 0 2.02292e-06)
(0.000120895 0 1.95946e-06)
(0.000117927 0 1.90166e-06)
(0.000115033 0 1.84663e-06)
(0.000112211 0 1.79213e-06)
(0.000109461 0 1.73816e-06)
(0.000106779 0 1.68465e-06)
(0.000104162 0 1.63214e-06)
(0.00010161 0 1.5821e-06)
(9.91207e-05 0 1.5339e-06)
(9.66918e-05 0 1.48616e-06)
(9.43235e-05 0 1.43966e-06)
(9.20145e-05 0 1.39489e-06)
(8.9764e-05 0 1.34972e-06)
(8.75738e-05 0 1.30302e-06)
(8.54442e-05 0 1.25645e-06)
(8.33734e-05 0 1.20898e-06)
(8.13624e-05 0 1.15855e-06)
(7.94129e-05 0 1.10964e-06)
(7.75187e-05 0 1.06974e-06)
(7.56687e-05 0 1.03745e-06)
(7.38583e-05 0 1.00518e-06)
(7.20898e-05 0 9.72538e-07)
(7.03614e-05 0 9.45402e-07)
(6.86662e-05 0 9.2247e-07)
(6.7004e-05 0 8.95087e-07)
(6.53818e-05 0 8.61998e-07)
(6.38018e-05 0 8.30762e-07)
(6.22579e-05 0 8.04491e-07)
(6.07462e-05 0 7.77582e-07)
(5.92694e-05 0 7.48222e-07)
(5.78279e-05 0 7.22599e-07)
(5.64148e-05 0 7.04212e-07)
(5.50248e-05 0 6.87586e-07)
(5.36607e-05 0 6.66562e-07)
(5.23273e-05 0 6.42543e-07)
(5.10249e-05 0 6.19114e-07)
(4.97508e-05 0 5.96204e-07)
(4.85051e-05 0 5.72072e-07)
(4.72888e-05 0 5.47874e-07)
(4.61008e-05 0 5.25292e-07)
(4.49399e-05 0 5.04159e-07)
(4.38061e-05 0 4.84249e-07)
(4.26987e-05 0 4.67539e-07)
(4.16146e-05 0 4.54255e-07)
(4.05514e-05 0 4.413e-07)
(3.95112e-05 0 4.24223e-07)
(3.8498e-05 0 4.0329e-07)
(3.75132e-05 0 3.81793e-07)
(3.65547e-05 0 3.62653e-07)
(3.56193e-05 0 3.46907e-07)
(3.47033e-05 0 3.34563e-07)
(3.38034e-05 0 3.24108e-07)
(3.29182e-05 0 3.12789e-07)
(3.20499e-05 0 2.99137e-07)
(3.12014e-05 0 2.85799e-07)
(3.03724e-05 0 2.7689e-07)
(2.95585e-05 0 2.72393e-07)
(2.87576e-05 0 2.66145e-07)
(2.79745e-05 0 2.52644e-07)
(2.72169e-05 0 2.34666e-07)
(2.64862e-05 0 2.20321e-07)
(2.57753e-05 0 2.14025e-07)
(2.50768e-05 0 2.09874e-07)
(2.43922e-05 0 1.99445e-07)
(2.37298e-05 0 1.8096e-07)
(2.30946e-05 0 1.61668e-07)
(2.24827e-05 0 1.48935e-07)
(2.18861e-05 0 1.42682e-07)
(2.13009e-05 0 1.38877e-07)
(2.07283e-05 0 1.34915e-07)
(2.017e-05 0 1.30493e-07)
(1.96278e-05 0 1.24599e-07)
(1.91044e-05 0 1.16157e-07)
(1.8602e-05 0 1.06143e-07)
(1.81202e-05 0 9.68596e-08)
(1.76583e-05 0 8.72379e-08)
(1.72172e-05 0 7.4356e-08)
(1.67995e-05 0 5.84079e-08)
(1.64042e-05 0 4.37127e-08)
(1.60263e-05 0 3.32846e-08)
(1.56598e-05 0 2.60627e-08)
(1.53015e-05 0 2.0037e-08)
(1.49496e-05 0 1.45462e-08)
(1.4602e-05 0 9.48905e-09)
(1.42574e-05 0 4.62641e-09)
(1.39152e-05 0 7.09882e-10)
(1.35743e-05 0 -8.39637e-10)
(1.32328e-05 0 -5.22702e-10)
(1.28904e-05 0 -1.64172e-09)
(1.25506e-05 0 -7.28538e-09)
(1.22184e-05 0 -1.70961e-08)
(1.18961e-05 0 -2.83096e-08)
(1.1583e-05 0 -3.82388e-08)
(1.12789e-05 0 -4.72187e-08)
(1.09843e-05 0 -5.67339e-08)
(1.07009e-05 0 -6.70336e-08)
(1.04297e-05 0 -7.73483e-08)
(1.01707e-05 0 -8.70468e-08)
(9.92327e-06 0 -9.59786e-08)
(9.6863e-06 0 -1.03512e-07)
(9.45784e-06 0 -1.08355e-07)
(9.23474e-06 0 -1.09675e-07)
(9.01384e-06 0 -1.08461e-07)
(8.79353e-06 0 -1.07075e-07)
(8.57431e-06 0 -1.07412e-07)
(8.35744e-06 0 -1.09441e-07)
(8.1435e-06 0 -1.11726e-07)
(7.93186e-06 0 -1.1328e-07)
(7.7218e-06 0 -1.14531e-07)
(7.51383e-06 0 -1.17273e-07)
(7.31006e-06 0 -1.22823e-07)
(7.11328e-06 0 -1.31268e-07)
(6.92555e-06 0 -1.41292e-07)
(6.74755e-06 0 -1.5124e-07)
(6.57832e-06 0 -1.59778e-07)
(6.41604e-06 0 -1.66128e-07)
(6.25825e-06 0 -1.69905e-07)
(6.10233e-06 0 -1.70853e-07)
(5.94576e-06 0 -1.69311e-07)
(5.78645e-06 0 -1.6561e-07)
(5.6231e-06 0 -1.60963e-07)
(5.45567e-06 0 -1.56757e-07)
(5.28541e-06 0 -1.54297e-07)
(5.1146e-06 0 -1.54316e-07)
(4.94607e-06 0 -1.56907e-07)
(4.78272e-06 0 -1.61662e-07)
(4.62678e-06 0 -1.67679e-07)
(4.47939e-06 0 -1.74619e-07)
(4.34102e-06 0 -1.82709e-07)
(4.2123e-06 0 -1.92487e-07)
(4.09393e-06 0 -2.02932e-07)
(3.98569e-06 0 -2.11308e-07)
(3.88444e-06 0 -2.14023e-07)
(3.78405e-06 0 -2.09392e-07)
(3.67798e-06 0 -2.00454e-07)
(3.56375e-06 0 -1.92163e-07)
(3.44424e-06 0 -1.87972e-07)
(3.32399e-06 0 -1.86058e-07)
(3.20544e-06 0 -1.84632e-07)
(3.08927e-06 0 -1.84922e-07)
(2.97855e-06 0 -1.91054e-07)
(2.87965e-06 0 -2.0367e-07)
(2.79756e-06 0 -2.17636e-07)
(2.73049e-06 0 -2.26342e-07)
(2.67062e-06 0 -2.28116e-07)
(2.6114e-06 0 -2.26769e-07)
(2.55114e-06 0 -2.24889e-07)
(2.48929e-06 0 -2.19922e-07)
(2.422e-06 0 -2.0952e-07)
(2.34415e-06 0 -1.95989e-07)
(2.25538e-06 0 -1.85166e-07)
(2.16038e-06 0 -1.79437e-07)
(2.06408e-06 0 -1.76815e-07)
(1.96839e-06 0 -1.75607e-07)
(1.87486e-06 0 -1.7694e-07)
(1.7864e-06 0 -1.81116e-07)
(1.70452e-06 0 -1.85139e-07)
(1.62682e-06 0 -1.85932e-07)
(1.54932e-06 0 -1.83165e-07)
(1.46896e-06 0 -1.77231e-07)
(1.38264e-06 0 -1.67604e-07)
(1.28657e-06 0 -1.55328e-07)
(1.17997e-06 0 -1.43998e-07)
(1.06632e-06 0 -1.36737e-07)
(9.50987e-07 0 -1.33041e-07)
(8.37149e-07 0 -1.31809e-07)
(7.2662e-07 0 -1.33304e-07)
(6.21954e-07 0 -1.37922e-07)
(5.24584e-07 0 -1.4252e-07)
(4.32586e-07 0 -1.42827e-07)
(3.4037e-07 0 -1.36796e-07)
(2.42601e-07 0 -1.26554e-07)
(1.37065e-07 0 -1.15173e-07)
(2.45367e-08 0 -1.0465e-07)
(-9.30729e-08 0 -9.57346e-08)
(-2.12911e-07 0 -8.98975e-08)
(-3.3089e-07 0 -8.87731e-08)
(-4.42044e-07 0 -9.24391e-08)
(-5.4296e-07 0 -9.80335e-08)
(-6.33725e-07 0 -1.01879e-07)
(-7.17346e-07 0 -1.02256e-07)
(-7.97095e-07 0 -1.00129e-07)
(-8.74242e-07 0 -9.72586e-08)
(-9.48455e-07 0 -9.39621e-08)
(-1.01969e-06 0 -8.98826e-08)
(-1.08795e-06 0 -8.67734e-08)
(-1.15042e-06 0 -8.82233e-08)
(-1.2014e-06 0 -9.53904e-08)
(-1.23643e-06 0 -1.05065e-07)
(-1.25629e-06 0 -1.12383e-07)
(-1.26588e-06 0 -1.14095e-07)
(-1.27149e-06 0 -1.09463e-07)
(-1.27809e-06 0 -1.00375e-07)
(-1.28739e-06 0 -9.06242e-08)
(-1.29711e-06 0 -8.40698e-08)
(-1.30227e-06 0 -8.23561e-08)
(-1.29825e-06 0 -8.50423e-08)
(-1.28214e-06 0 -9.03553e-08)
(-1.25385e-06 0 -9.49614e-08)
(-1.21702e-06 0 -9.54037e-08)
(-1.17762e-06 0 -9.03683e-08)
(-1.14068e-06 0 -8.12239e-08)
(-1.10877e-06 0 -6.9862e-08)
(-1.08201e-06 0 -5.94553e-08)
(-1.05661e-06 0 -5.44864e-08)
(-1.02542e-06 0 -5.77431e-08)
(-9.81369e-07 0 -6.65728e-08)
(-9.22616e-07 0 -7.44731e-08)
(-8.54151e-07 0 -7.65484e-08)
(-7.82755e-07 0 -7.36915e-08)
(-7.11087e-07 0 -6.87717e-08)
(-6.39314e-07 0 -6.2346e-08)
(-5.68552e-07 0 -5.65836e-08)
(-4.96262e-07 0 -5.66976e-08)
(-4.17069e-07 0 -6.11747e-08)
(-3.3123e-07 0 -6.28353e-08)
(-2.44855e-07 0 -5.82243e-08)
(-1.63766e-07 0 -4.92735e-08)
(-9.05729e-08 0 -3.95786e-08)
(-2.30352e-08 0 -3.36584e-08)
(4.42538e-08 0 -3.2213e-08)
(1.13283e-07 0 -3.17431e-08)
(1.81802e-07 0 -3.02498e-08)
(2.48183e-07 0 -2.761e-08)
(3.0997e-07 0 -2.09569e-08)
(3.63596e-07 0 -1.38424e-08)
(4.09279e-07 0 -9.72312e-09)
(4.52279e-07 0 -7.12947e-09)
(4.87245e-07 0 4.71264e-09)
(5.03907e-07 0 2.03616e-08)
(5.07068e-07 0 3.00068e-08)
(4.98991e-07 0 3.94827e-08)
(4.83729e-07 0 4.04367e-08)
(4.70736e-07 0 3.90209e-08)
(4.56381e-07 0 4.29699e-08)
(4.36196e-07 0 4.70853e-08)
(4.06187e-07 0 5.48766e-08)
(3.7278e-07 0 5.56908e-08)
(3.38172e-07 0 5.15917e-08)
(3.13947e-07 0 4.08803e-08)
(2.95047e-07 0 3.9133e-08)
(2.72511e-07 0 4.66954e-08)
(2.35517e-07 0 6.08919e-08)
(1.80783e-07 0 7.32855e-08)
(1.25391e-07 0 6.93901e-08)
(6.43634e-08 0 7.67123e-08)
(1.26574e-08 0 5.72107e-08)
(-3.08763e-08 0 7.31192e-08)
(-1.08491e-07 0 9.81807e-08)
(-2.01017e-07 0 1.0006e-07)
(-2.90871e-07 0 9.92207e-08)
(-3.66333e-07 0 8.68703e-08)
(-4.39772e-07 0 9.68341e-08)
(-5.22952e-07 0 9.74901e-08)
(-5.93249e-07 0 8.37938e-08)
(-6.53943e-07 0 7.72729e-08)
(-6.81424e-07 0 4.42534e-08)
(-7.22309e-07 0 7.42734e-08)
(-7.59126e-07 0 5.76597e-08)
(-7.97666e-07 0 8.59879e-08)
(-8.46972e-07 0 8.54123e-08)
(-9.10081e-07 0 1.1127e-07)
(-9.73885e-07 0 9.0584e-08)
(-9.74097e-07 0 3.71545e-08)
(-9.85086e-07 0 8.67052e-08)
(-1.00319e-06 0 2.92104e-08)
(-9.49718e-07 0 -1.09286e-08)
(-9.16064e-07 0 6.07812e-08)
(-9.11786e-07 0 3.46179e-08)
(-8.79894e-07 0 3.89727e-08)
(-8.34367e-07 0 4.0357e-08)
(-8.13373e-07 0 4.61508e-08)
(-7.26813e-07 0 -8.92819e-08)
(-6.15943e-07 0 -2.48961e-08)
(-6.39597e-07 0 3.25029e-08)
(-4.41964e-07 0 3.23277e-08)
(-6.6189e-07 0 1.93458e-07)
(-4.83376e-07 0 1.61487e-07)
(-3.58238e-07 0 1.1206e-07)
(-2.02356e-07 0 1.1947e-07)
(-5.73347e-08 0 1.03937e-07)
(1.01465e-07 0 8.56118e-08)
(2.64112e-07 0 8.64908e-08)
(4.16605e-07 0 1.0735e-07)
(5.61034e-07 0 1.25045e-07)
(7.02233e-07 0 1.29015e-07)
(8.39217e-07 0 1.25648e-07)
(9.77349e-07 0 1.12169e-07)
(1.12811e-06 0 8.3477e-08)
(1.29539e-06 0 5.18703e-08)
(1.47047e-06 0 3.75934e-08)
(1.64262e-06 0 4.15752e-08)
(1.80681e-06 0 4.78821e-08)
(1.96576e-06 0 4.28392e-08)
(2.12523e-06 0 2.75188e-08)
(2.28856e-06 0 1.27979e-08)
(2.45181e-06 0 5.5215e-09)
(2.60402e-06 0 8.66526e-09)
(2.73485e-06 0 2.23674e-08)
(2.83952e-06 0 4.33165e-08)
(2.91481e-06 0 6.38445e-08)
(2.95812e-06 0 7.92473e-08)
(2.97233e-06 0 8.85806e-08)
(2.96365e-06 0 9.29463e-08)
(2.93872e-06 0 9.23782e-08)
(2.90588e-06 0 8.50908e-08)
(2.87372e-06 0 7.00882e-08)
(2.85359e-06 0 4.3527e-08)
(2.87124e-06 0 9.61171e-09)
(2.90417e-06 0 -3.62896e-08)
(2.95402e-06 0 -7.40959e-08)
(3.03697e-06 0 -1.03882e-07)
(3.12523e-06 0 -1.23075e-07)
(3.2146e-06 0 -1.30928e-07)
(3.29634e-06 0 -1.30576e-07)
(3.36045e-06 0 -1.24252e-07)
(3.40078e-06 0 -1.131e-07)
(3.41183e-06 0 -9.58079e-08)
(3.38721e-06 0 -7.04523e-08)
(3.32605e-06 0 -3.65924e-08)
(3.22519e-06 0 -2.93115e-09)
(3.08443e-06 0 2.42062e-08)
(2.91739e-06 0 3.66401e-08)
(2.74202e-06 0 3.00114e-08)
(2.57411e-06 0 8.30395e-09)
(2.42781e-06 0 -3.35564e-08)
(2.3097e-06 0 -8.80002e-08)
(2.2213e-06 0 -1.40336e-07)
(2.16313e-06 0 -1.7375e-07)
(2.10782e-06 0 -1.72053e-07)
(2.03779e-06 0 -1.28391e-07)
(1.91672e-06 0 -7.2682e-08)
(1.75919e-06 0 -4.17599e-08)
(1.6247e-06 0 -8.93181e-08)
(1.54384e-06 0 -1.88339e-07)
(1.50769e-06 0 -2.48261e-07)
(1.45858e-06 0 -1.95773e-07)
(1.32361e-06 0 -4.36853e-08)
(1.04995e-06 0 7.45283e-08)
(7.80791e-07 0 5.72205e-08)
(6.16878e-07 0 -1.00793e-07)
(5.2696e-07 0 -1.87904e-07)
(4.20156e-07 0 -9.46816e-08)
(1.95391e-07 0 4.7829e-08)
(-4.72134e-08 0 5.99283e-09)
(-1.38576e-07 0 -2.21299e-07)
(-8.6477e-08 0 -3.42169e-07)
(-6.12772e-08 0 -2.37569e-07)
(-1.1962e-07 0 -1.72186e-07)
(-8.50917e-08 0 -3.70884e-07)
(1.22991e-07 0 -5.13343e-07)
(2.64836e-07 0 -3.16452e-07)
(1.87778e-07 0 -1.31062e-07)
(9.75893e-08 0 -1.81206e-07)
(-9.37343e-09 0 -3.01488e-08)
(-2.72974e-07 0 -1.83501e-08)
(-2.14965e-07 0 -4.39647e-07)
(0.0062814 0 -6.30224e-05)
(0.00949868 0 4.99214e-05)
(0.00877041 0 5.67952e-05)
(0.00861536 0 6.06973e-05)
(0.00861888 0 6.68024e-05)
(0.00859441 0 7.38499e-05)
(0.00856424 0 8.14405e-05)
(0.00853082 0 8.87377e-05)
(0.00849405 0 9.6151e-05)
(0.00845407 0 0.000103609)
(0.00841103 0 0.00011099)
(0.00836504 0 0.000118367)
(0.00831604 0 0.000125742)
(0.00826396 0 0.000133118)
(0.00820892 0 0.000140408)
(0.00815108 0 0.000147384)
(0.00809049 0 0.000154171)
(0.00802709 0 0.000160726)
(0.00796086 0 0.000166988)
(0.00789191 0 0.000172958)
(0.00782043 0 0.000178676)
(0.0077466 0 0.000184118)
(0.00767067 0 0.000189151)
(0.00759279 0 0.000193802)
(0.00751313 0 0.000198144)
(0.00743182 0 0.000202328)
(0.00734891 0 0.000206285)
(0.00726449 0 0.000210077)
(0.00717859 0 0.00021374)
(0.00709122 0 0.000217235)
(0.00700243 0 0.000220476)
(0.00691226 0 0.000223487)
(0.0068208 0 0.000226257)
(0.0067282 0 0.000228758)
(0.00663459 0 0.000230952)
(0.00654009 0 0.000232787)
(0.00644485 0 0.000234287)
(0.00634896 0 0.000235459)
(0.00625255 0 0.000236264)
(0.00615573 0 0.000236658)
(0.00605862 0 0.000236663)
(0.00596137 0 0.00023635)
(0.00586413 0 0.000235779)
(0.00576706 0 0.000234979)
(0.0056703 0 0.000233974)
(0.00557397 0 0.000232816)
(0.00547817 0 0.000231581)
(0.00538294 0 0.000230337)
(0.00528834 0 0.000229129)
(0.0051944 0 0.000227975)
(0.00510118 0 0.000226875)
(0.0050087 0 0.000225818)
(0.00491697 0 0.000224811)
(0.004826 0 0.000223873)
(0.00473579 0 0.000223004)
(0.00464635 0 0.000222169)
(0.00455766 0 0.000221333)
(0.00446966 0 0.000220495)
(0.0043823 0 0.000219719)
(0.00429546 0 0.000219117)
(0.00420909 0 0.000218757)
(0.00412313 0 0.000218721)
(0.00403751 0 0.000219082)
(0.00395211 0 0.000219969)
(0.00386682 0 0.000221508)
(0.00378148 0 0.000223828)
(0.00369592 0 0.000227053)
(0.00360985 0 0.000231467)
(0.00352285 0 0.000237546)
(0.00343442 0 0.000245887)
(0.00334392 0 0.000257254)
(0.00325069 0 0.000272996)
(0.00315423 0 0.00029558)
(0.00305472 0 0.000329076)
(0.00295418 0 0.000380128)
(0.0028592 0 0.000460248)
(0.0027854 0 0.000587737)
(0.00277548 0 0.000810569)
(0.00275008 0 0.000951242)
(0.00251014 0 0.00047745)
(0.00244917 0 0.000410619)
(0.00135883 0 0.000128664)
(0.00143951 0 6.30556e-05)
(0.00118117 0 -2.59604e-05)
(0.00117846 0 -8.5225e-05)
(0.00115039 0 6.83554e-05)
(0.00111849 0 6.56062e-05)
(0.00110379 0 7.31199e-05)
(0.00111728 0 5.25657e-05)
(0.00111586 0 4.89595e-05)
(0.00108785 0 3.78226e-05)
(0.00107641 0 3.2346e-05)
(0.00106117 0 4.08542e-05)
(0.00104563 0 4.11794e-05)
(0.00103279 0 4.2158e-05)
(0.00101818 0 4.36161e-05)
(0.00100216 0 4.4471e-05)
(0.000986569 0 4.54613e-05)
(0.000970963 0 4.89562e-05)
(0.000956206 0 4.91902e-05)
(0.00093788 0 4.61776e-05)
(0.000922954 0 4.5271e-05)
(0.000894092 0 4.29546e-05)
(0.000879339 0 4.17107e-05)
(0.000860569 0 3.88291e-05)
(0.000845011 0 3.82967e-05)
(0.000829284 0 4.00558e-05)
(0.000813596 0 3.99542e-05)
(0.000798524 0 3.97631e-05)
(0.000784137 0 3.92596e-05)
(0.000769742 0 3.90156e-05)
(0.000755379 0 3.86728e-05)
(0.000741422 0 3.84867e-05)
(0.000727593 0 3.85682e-05)
(0.00071406 0 3.90242e-05)
(0.000700729 0 3.96507e-05)
(0.000688308 0 4.22976e-05)
(0.000677103 0 4.18097e-05)
(0.000662495 0 3.80578e-05)
(0.000651815 0 3.64037e-05)
(0.000624863 0 3.32761e-05)
(0.00061464 0 3.13935e-05)
(0.000600268 0 2.80665e-05)
(0.000589219 0 2.71113e-05)
(0.000577981 0 2.84681e-05)
(0.000566787 0 2.80426e-05)
(0.000556196 0 2.75266e-05)
(0.000545457 0 2.71542e-05)
(0.000534652 0 2.66133e-05)
(0.000524093 0 2.6139e-05)
(0.000513653 0 2.57497e-05)
(0.000503342 0 2.53024e-05)
(0.000493194 0 2.48848e-05)
(0.000483185 0 2.44678e-05)
(0.000473325 0 2.40024e-05)
(0.000463632 0 2.35257e-05)
(0.0004541 0 2.30937e-05)
(0.00044472 0 2.26959e-05)
(0.000435489 0 2.22783e-05)
(0.000426414 0 2.18278e-05)
(0.000417497 0 2.13744e-05)
(0.000408732 0 2.09629e-05)
(0.000400106 0 2.0574e-05)
(0.000391619 0 2.01545e-05)
(0.000383278 0 1.97371e-05)
(0.000375089 0 1.93561e-05)
(0.000367038 0 1.89835e-05)
(0.000359123 0 1.85798e-05)
(0.000351351 0 1.81719e-05)
(0.000343718 0 1.77968e-05)
(0.000336213 0 1.74309e-05)
(0.000328838 0 1.70497e-05)
(0.000321599 0 1.66777e-05)
(0.000314492 0 1.6325e-05)
(0.000307511 0 1.59641e-05)
(0.000300663 0 1.55902e-05)
(0.000293955 0 1.52267e-05)
(0.000287379 0 1.48739e-05)
(0.000280926 0 1.45209e-05)
(0.000274592 0 1.41817e-05)
(0.000268379 0 1.38636e-05)
(0.00026228 0 1.35387e-05)
(0.000256288 0 1.31939e-05)
(0.000250407 0 1.28564e-05)
(0.000244644 0 1.25446e-05)
(0.000239003 0 1.22385e-05)
(0.00023348 0 1.19181e-05)
(0.000228069 0 1.15997e-05)
(0.000222768 0 1.13117e-05)
(0.00021757 0 1.10458e-05)
(0.00021247 0 1.07636e-05)
(0.000207468 0 1.04668e-05)
(0.000202566 0 1.01945e-05)
(0.000197761 0 9.94425e-06)
(0.000193054 0 9.68116e-06)
(0.000188447 0 9.41065e-06)
(0.000183939 0 9.16326e-06)
(0.000179525 0 8.93335e-06)
(0.000175199 0 8.69646e-06)
(0.000170964 0 8.45826e-06)
(0.000166819 0 8.23734e-06)
(0.00016276 0 8.02315e-06)
(0.000158787 0 7.79535e-06)
(0.000154904 0 7.56213e-06)
(0.000151112 0 7.34394e-06)
(0.000147407 0 7.13859e-06)
(0.000143788 0 6.93029e-06)
(0.000140256 0 6.71919e-06)
(0.000136812 0 6.51828e-06)
(0.000133449 0 6.32932e-06)
(0.00013016 0 6.14019e-06)
(0.000126946 0 5.94349e-06)
(0.000123811 0 5.74533e-06)
(0.000120756 0 5.55618e-06)
(0.00011778 0 5.37633e-06)
(0.000114884 0 5.19827e-06)
(0.000112068 0 5.02252e-06)
(0.000109325 0 4.85549e-06)
(0.000106647 0 4.6957e-06)
(0.000104031 0 4.53828e-06)
(0.000101477 0 4.38425e-06)
(9.89862e-05 0 4.23465e-06)
(9.65581e-05 0 4.08689e-06)
(9.4193e-05 0 3.94086e-06)
(9.1892e-05 0 3.79767e-06)
(8.96542e-05 0 3.65426e-06)
(8.74786e-05 0 3.50958e-06)
(8.53624e-05 0 3.36887e-06)
(8.33007e-05 0 3.23205e-06)
(8.1289e-05 0 3.09358e-06)
(7.93262e-05 0 2.95881e-06)
(7.74117e-05 0 2.84175e-06)
(7.55425e-05 0 2.74153e-06)
(7.37168e-05 0 2.64267e-06)
(7.19357e-05 0 2.54137e-06)
(7.01999e-05 0 2.44852e-06)
(6.85074e-05 0 2.36375e-06)
(6.68556e-05 0 2.2727e-06)
(6.52431e-05 0 2.17289e-06)
(6.36681e-05 0 2.07902e-06)
(6.21265e-05 0 1.99807e-06)
(6.06148e-05 0 1.91974e-06)
(5.91332e-05 0 1.83827e-06)
(5.76834e-05 0 1.76279e-06)
(5.62666e-05 0 1.69926e-06)
(5.48826e-05 0 1.63754e-06)
(5.35321e-05 0 1.56723e-06)
(5.22152e-05 0 1.49248e-06)
(5.09293e-05 0 1.42261e-06)
(4.96704e-05 0 1.35756e-06)
(4.84357e-05 0 1.29304e-06)
(4.72239e-05 0 1.22969e-06)
(4.60345e-05 0 1.16962e-06)
(4.48682e-05 0 1.1107e-06)
(4.37277e-05 0 1.05146e-06)
(4.26161e-05 0 9.94993e-07)
(4.15346e-05 0 9.43728e-07)
(4.04821e-05 0 8.93181e-07)
(3.94567e-05 0 8.37624e-07)
(3.84558e-05 0 7.77585e-07)
(3.74765e-05 0 7.19107e-07)
(3.6517e-05 0 6.65926e-07)
(3.55775e-05 0 6.18892e-07)
(3.4658e-05 0 5.78838e-07)
(3.37565e-05 0 5.45518e-07)
(3.28698e-05 0 5.14527e-07)
(3.19964e-05 0 4.79996e-07)
(3.1139e-05 0 4.42805e-07)
(3.03029e-05 0 4.10573e-07)
(2.94904e-05 0 3.86545e-07)
(2.86997e-05 0 3.63073e-07)
(2.79282e-05 0 3.29577e-07)
(2.71758e-05 0 2.86812e-07)
(2.64457e-05 0 2.4793e-07)
(2.57389e-05 0 2.21802e-07)
(2.5053e-05 0 2.00961e-07)
(2.43831e-05 0 1.70709e-07)
(2.37274e-05 0 1.28455e-07)
(2.30887e-05 0 8.70108e-08)
(2.24673e-05 0 5.90367e-08)
(2.18617e-05 0 4.3987e-08)
(2.12721e-05 0 3.23075e-08)
(2.07003e-05 0 1.90461e-08)
(2.01475e-05 0 5.5071e-09)
(1.9613e-05 0 -8.34644e-09)
(1.90957e-05 0 -2.58113e-08)
(1.85974e-05 0 -4.74095e-08)
(1.81202e-05 0 -7.01677e-08)
(1.76637e-05 0 -9.48863e-08)
(1.72261e-05 0 -1.25769e-07)
(1.68059e-05 0 -1.61896e-07)
(1.64013e-05 0 -1.95694e-07)
(1.60101e-05 0 -2.22448e-07)
(1.56303e-05 0 -2.44759e-07)
(1.52609e-05 0 -2.65941e-07)
(1.49e-05 0 -2.85418e-07)
(1.45448e-05 0 -3.02167e-07)
(1.41933e-05 0 -3.17527e-07)
(1.38457e-05 0 -3.3205e-07)
(1.35032e-05 0 -3.43751e-07)
(1.31662e-05 0 -3.52353e-07)
(1.2834e-05 0 -3.6246e-07)
(1.25065e-05 0 -3.79392e-07)
(1.21845e-05 0 -4.03064e-07)
(1.18697e-05 0 -4.28652e-07)
(1.15634e-05 0 -4.51949e-07)
(1.12651e-05 0 -4.73564e-07)
(1.09753e-05 0 -4.96271e-07)
(1.0695e-05 0 -5.20873e-07)
(1.04247e-05 0 -5.45583e-07)
(1.01641e-05 0 -5.68384e-07)
(9.91185e-06 0 -5.88301e-07)
(9.66704e-06 0 -6.04495e-07)
(9.42917e-06 0 -6.15585e-07)
(9.19797e-06 0 -6.21017e-07)
(8.97301e-06 0 -6.22682e-07)
(8.75344e-06 0 -6.24416e-07)
(8.53835e-06 0 -6.29036e-07)
(8.3272e-06 0 -6.36609e-07)
(8.11977e-06 0 -6.45179e-07)
(7.91621e-06 0 -6.53469e-07)
(7.71667e-06 0 -6.6252e-07)
(7.52126e-06 0 -6.74905e-07)
(7.33012e-06 0 -6.92489e-07)
(7.14325e-06 0 -7.14828e-07)
(6.96064e-06 0 -7.39283e-07)
(6.78207e-06 0 -7.62717e-07)
(6.60697e-06 0 -7.82385e-07)
(6.43457e-06 0 -7.96783e-07)
(6.26404e-06 0 -8.05244e-07)
(6.09481e-06 0 -8.07811e-07)
(5.92656e-06 0 -8.05322e-07)
(5.75932e-06 0 -7.99183e-07)
(5.59347e-06 0 -7.91571e-07)
(5.42951e-06 0 -7.8507e-07)
(5.26778e-06 0 -7.82064e-07)
(5.10909e-06 0 -7.84474e-07)
(4.95444e-06 0 -7.93307e-07)
(4.80541e-06 0 -8.08038e-07)
(4.66339e-06 0 -8.26615e-07)
(4.52887e-06 0 -8.46101e-07)
(4.40054e-06 0 -8.65038e-07)
(4.27572e-06 0 -8.832e-07)
(4.15195e-06 0 -9.00906e-07)
(4.02863e-06 0 -9.15421e-07)
(3.9073e-06 0 -9.21482e-07)
(3.78899e-06 0 -9.14218e-07)
(3.6731e-06 0 -8.96288e-07)
(3.55722e-06 0 -8.7711e-07)
(3.44075e-06 0 -8.66015e-07)
(3.32637e-06 0 -8.63708e-07)
(3.21771e-06 0 -8.65601e-07)
(3.11572e-06 0 -8.70146e-07)
(3.01836e-06 0 -8.8264e-07)
(2.92476e-06 0 -9.0659e-07)
(2.83669e-06 0 -9.34399e-07)
(2.75529e-06 0 -9.51773e-07)
(2.67795e-06 0 -9.51916e-07)
(2.59976e-06 0 -9.41781e-07)
(2.51868e-06 0 -9.29738e-07)
(2.43642e-06 0 -9.1437e-07)
(2.3547e-06 0 -8.90159e-07)
(2.27276e-06 0 -8.59371e-07)
(2.18879e-06 0 -8.32542e-07)
(2.10312e-06 0 -8.16031e-07)
(2.01733e-06 0 -8.0674e-07)
(1.93184e-06 0 -8.00405e-07)
(1.84604e-06 0 -7.98044e-07)
(1.75987e-06 0 -7.99866e-07)
(1.67325e-06 0 -7.99857e-07)
(1.58496e-06 0 -7.92143e-07)
(1.49383e-06 0 -7.76818e-07)
(1.39989e-06 0 -7.55297e-07)
(1.30324e-06 0 -7.26363e-07)
(1.203e-06 0 -6.91999e-07)
(1.09924e-06 0 -6.60716e-07)
(9.94504e-07 0 -6.40141e-07)
(8.92212e-07 0 -6.29277e-07)
(7.93741e-07 0 -6.23193e-07)
(6.97443e-07 0 -6.19684e-07)
(6.01129e-07 0 -6.18759e-07)
(5.03651e-07 0 -6.16414e-07)
(4.04706e-07 0 -6.05829e-07)
(3.03557e-07 0 -5.83393e-07)
(1.99524e-07 0 -5.52789e-07)
(9.29752e-08 0 -5.20632e-07)
(-1.45263e-08 0 -4.91757e-07)
(-1.2102e-07 0 -4.6838e-07)
(-2.25074e-07 0 -4.52637e-07)
(-3.25661e-07 0 -4.46272e-07)
(-4.22124e-07 0 -4.48202e-07)
(-5.13984e-07 0 -4.5297e-07)
(-6.01278e-07 0 -4.53825e-07)
(-6.84957e-07 0 -4.47412e-07)
(-7.66259e-07 0 -4.3576e-07)
(-8.45002e-07 0 -4.23305e-07)
(-9.18915e-07 0 -4.11888e-07)
(-9.85407e-07 0 -4.0068e-07)
(-1.04382e-06 0 -3.91827e-07)
(-1.09462e-06 0 -3.91291e-07)
(-1.1378e-06 0 -4.00608e-07)
(-1.17355e-06 0 -4.12096e-07)
(-1.20396e-06 0 -4.15608e-07)
(-1.23124e-06 0 -4.06549e-07)
(-1.2559e-06 0 -3.86698e-07)
(-1.27639e-06 0 -3.61442e-07)
(-1.29053e-06 0 -3.38459e-07)
(-1.29615e-06 0 -3.24323e-07)
(-1.29136e-06 0 -3.20492e-07)
(-1.27669e-06 0 -3.2359e-07)
(-1.25461e-06 0 -3.28269e-07)
(-1.22864e-06 0 -3.27902e-07)
(-1.20175e-06 0 -3.16739e-07)
(-1.17507e-06 0 -2.94813e-07)
(-1.14757e-06 0 -2.66774e-07)
(-1.11714e-06 0 -2.38595e-07)
(-1.08115e-06 0 -2.16378e-07)
(-1.03769e-06 0 -2.06369e-07)
(-9.87161e-07 0 -2.10191e-07)
(-9.31689e-07 0 -2.2212e-07)
(-8.73333e-07 0 -2.29995e-07)
(-8.13934e-07 0 -2.25274e-07)
(-7.54127e-07 0 -2.11676e-07)
(-6.90998e-07 0 -1.98731e-07)
(-6.20633e-07 0 -1.87183e-07)
(-5.43767e-07 0 -1.7659e-07)
(-4.64483e-07 0 -1.73327e-07)
(-3.86419e-07 0 -1.74375e-07)
(-3.11671e-07 0 -1.68968e-07)
(-2.39062e-07 0 -1.53208e-07)
(-1.66942e-07 0 -1.30999e-07)
(-9.45853e-08 0 -1.10491e-07)
(-2.10997e-08 0 -1.00065e-07)
(5.39573e-08 0 -9.78686e-08)
(1.28098e-07 0 -9.39526e-08)
(1.97068e-07 0 -8.42236e-08)
(2.58437e-07 0 -7.2775e-08)
(3.13377e-07 0 -5.51548e-08)
(3.61974e-07 0 -3.55182e-08)
(4.03158e-07 0 -1.92051e-08)
(4.40078e-07 0 -8.37766e-09)
(4.72292e-07 0 2.05504e-08)
(4.97185e-07 0 5.69279e-08)
(5.12407e-07 0 8.33723e-08)
(5.15145e-07 0 1.0732e-07)
(5.12342e-07 0 1.1048e-07)
(5.06002e-07 0 1.08128e-07)
(5.0563e-07 0 1.19325e-07)
(4.94556e-07 0 1.3358e-07)
(4.74641e-07 0 1.56815e-07)
(4.45964e-07 0 1.55861e-07)
(4.16127e-07 0 1.48713e-07)
(3.89551e-07 0 1.28527e-07)
(3.57207e-07 0 1.35203e-07)
(3.22317e-07 0 1.52458e-07)
(2.78996e-07 0 1.88892e-07)
(2.29781e-07 0 2.15777e-07)
(1.75851e-07 0 2.10902e-07)
(1.16245e-07 0 2.27646e-07)
(6.04369e-08 0 1.95672e-07)
(2.48999e-10 0 2.36023e-07)
(-7.571e-08 0 3.01851e-07)
(-1.59034e-07 0 3.03052e-07)
(-2.40014e-07 0 3.03932e-07)
(-3.09827e-07 0 2.67679e-07)
(-3.80441e-07 0 2.95855e-07)
(-4.46851e-07 0 3.00498e-07)
(-5.1794e-07 0 2.59225e-07)
(-5.6616e-07 0 2.45903e-07)
(-6.23114e-07 0 2.04651e-07)
(-7.00957e-07 0 2.79898e-07)
(-7.58406e-07 0 2.11812e-07)
(-7.85881e-07 0 2.79992e-07)
(-8.32824e-07 0 2.92531e-07)
(-8.85967e-07 0 3.05639e-07)
(-8.86317e-07 0 2.72245e-07)
(-9.09707e-07 0 1.78197e-07)
(-9.15245e-07 0 2.69028e-07)
(-9.11168e-07 0 1.86185e-07)
(-9.35472e-07 0 1.42841e-07)
(-9.08556e-07 0 2.31412e-07)
(-8.83565e-07 0 2.01455e-07)
(-8.65383e-07 0 1.54131e-07)
(-8.23881e-07 0 9.65682e-08)
(-8.87177e-07 0 1.79007e-07)
(-7.18013e-07 0 6.94304e-08)
(-1.36707e-06 0 4.68848e-07)
(-1.1416e-06 0 4.94679e-07)
(-1.08219e-06 0 4.55159e-07)
(-8.60997e-07 0 6.45171e-07)
(-6.1409e-07 0 5.67129e-07)
(-3.78951e-07 0 4.79243e-07)
(-1.7501e-07 0 5.46361e-07)
(-7.26109e-10 0 5.23359e-07)
(1.6017e-07 0 4.97925e-07)
(2.99091e-07 0 5.22449e-07)
(4.28996e-07 0 5.38324e-07)
(5.81358e-07 0 5.27496e-07)
(7.54066e-07 0 5.24462e-07)
(9.24419e-07 0 5.28002e-07)
(1.0882e-06 0 5.01941e-07)
(1.25249e-06 0 4.39134e-07)
(1.41626e-06 0 3.78954e-07)
(1.57254e-06 0 3.53999e-07)
(1.71733e-06 0 3.53195e-07)
(1.85695e-06 0 3.42822e-07)
(2.0028e-06 0 3.05852e-07)