/*--------------------------------*- C++ -*----------------------------------*\
| =========                 |                                                 |
| \\      /  F ield         | OpenFOAM: The Open Source CFD Toolbox           |
|  \\    /   O peration     | Version:  v2006                                 |
|   \\  /    A nd           | Website:  www.openfoam.com                      |
|    \\/     M anipulation  |                                                 |
\*---------------------------------------------------------------------------*/
FoamFile
{
    version     2.0;
    format      ascii;
    class       volScalarField;
    location    "9.3";
    object      k;
}
// * * * * * * * * * * * * * * * * * * * * * * * * * * * * * * * * * * * * * //

dimensions      [0 2 -2 0 0 0 0];


internalField   nonuniform List<scalar> 
33000
(
3.23057e-08
4.02416e-08
4.35989e-08
4.15596e-08
3.68097e-08
3.24398e-08
2.97666e-08
2.84399e-08
2.78295e-08
2.77831e-08
2.86536e-08
3.02532e-08
3.20921e-08
3.38562e-08
3.5648e-08
3.74922e-08
3.93762e-08
4.1197e-08
4.2843e-08
4.45893e-08
4.696e-08
5.07836e-08
5.80476e-08
7.2575e-08
9.94835e-08
1.41394e-07
2.00102e-07
2.77339e-07
3.55051e-07
4.13047e-07
4.47349e-07
4.72366e-07
4.92121e-07
5.19959e-07
5.7042e-07
6.84239e-07
9.06917e-07
1.20682e-06
1.48195e-06
1.6646e-06
1.76004e-06
1.79583e-06
1.81425e-06
1.81488e-06
1.78448e-06
1.74873e-06
1.69461e-06
1.67483e-06
1.68363e-06
1.68609e-06
1.65368e-06
1.59784e-06
1.52357e-06
1.4692e-06
1.43603e-06
1.42713e-06
1.44561e-06
1.4934e-06
1.56557e-06
1.64282e-06
1.68937e-06
1.70282e-06
1.68425e-06
1.63613e-06
1.56355e-06
1.46836e-06
1.34991e-06
1.21403e-06
1.08734e-06
9.87708e-07
9.08723e-07
8.48611e-07
8.02186e-07
7.66369e-07
7.38043e-07
7.21948e-07
7.18459e-07
7.25005e-07
7.39062e-07
7.59844e-07
7.75031e-07
8.08668e-07
8.49627e-07
9.00582e-07
9.65115e-07
1.02771e-06
1.07621e-06
1.11159e-06
1.1297e-06
1.13407e-06
1.1187e-06
1.088e-06
1.03839e-06
9.7317e-07
8.97494e-07
8.18994e-07
7.60475e-07
7.14989e-07
6.96445e-07
6.95758e-07
7.14042e-07
7.35673e-07
7.49684e-07
7.59627e-07
7.65634e-07
7.71644e-07
7.79591e-07
7.82514e-07
7.79615e-07
7.71201e-07
7.59474e-07
7.44202e-07
7.25036e-07
6.99783e-07
6.67775e-07
6.32507e-07
6.03061e-07
5.89254e-07
5.94489e-07
6.01327e-07
6.06022e-07
6.09602e-07
6.11861e-07
6.16949e-07
6.23443e-07
6.27656e-07
6.30295e-07
6.31604e-07
6.32413e-07
6.3327e-07
6.34137e-07
6.34663e-07
6.34578e-07
6.33672e-07
6.32228e-07
6.30764e-07
6.29571e-07
6.28553e-07
6.27483e-07
6.26274e-07
6.24987e-07
6.23743e-07
6.2235e-07
6.20583e-07
6.18299e-07
6.15612e-07
6.12869e-07
6.10213e-07
6.07486e-07
6.04321e-07
6.00486e-07
5.96306e-07
5.92156e-07
5.88079e-07
5.83863e-07
5.79388e-07
5.74697e-07
5.6989e-07
5.65068e-07
5.60249e-07
5.55403e-07
5.50487e-07
5.45471e-07
5.40416e-07
5.35502e-07
5.30697e-07
5.25723e-07
5.20531e-07
5.1543e-07
5.1058e-07
5.05763e-07
5.00571e-07
4.94928e-07
4.89203e-07
4.83803e-07
4.78947e-07
4.74522e-07
4.70162e-07
4.65535e-07
4.60567e-07
4.55426e-07
4.50384e-07
4.45678e-07
4.41427e-07
4.37541e-07
4.33737e-07
4.29717e-07
4.25515e-07
4.21541e-07
4.18028e-07
4.14847e-07
4.11695e-07
4.08384e-07
4.04981e-07
4.01723e-07
3.98943e-07
3.96875e-07
3.95496e-07
3.94424e-07
3.93206e-07
3.91817e-07
3.90554e-07
3.89819e-07
3.89631e-07
3.89713e-07
3.89784e-07
3.89737e-07
3.89791e-07
3.90341e-07
3.91344e-07
3.92258e-07
3.92617e-07
3.92862e-07
3.93624e-07
3.94807e-07
3.96352e-07
3.98192e-07
3.99858e-07
4.01015e-07
4.01977e-07
4.03132e-07
4.04669e-07
4.06476e-07
4.085e-07
4.1046e-07
4.11928e-07
4.13058e-07
4.14066e-07
4.15183e-07
4.165e-07
4.17969e-07
4.19387e-07
4.20229e-07
4.20639e-07
4.20902e-07
4.21125e-07
4.21418e-07
4.21648e-07
4.2171e-07
4.21596e-07
4.2136e-07
4.20913e-07
4.20074e-07
4.18854e-07
4.1747e-07
4.16147e-07
4.1486e-07
4.13622e-07
4.12163e-07
4.09965e-07
4.07539e-07
4.053e-07
4.03083e-07
4.00829e-07
3.98507e-07
3.95853e-07
3.92923e-07
3.89927e-07
3.86915e-07
3.83906e-07
3.80783e-07
3.77517e-07
3.74102e-07
3.70562e-07
3.67029e-07
3.63579e-07
3.60175e-07
3.56564e-07
3.52628e-07
3.48579e-07
3.44628e-07
3.40719e-07
3.36784e-07
3.32856e-07
3.28949e-07
3.24881e-07
3.20627e-07
3.16327e-07
3.12055e-07
3.07805e-07
3.03548e-07
2.99303e-07
2.95107e-07
2.90871e-07
2.86455e-07
2.81985e-07
2.77592e-07
2.73227e-07
2.68854e-07
2.64483e-07
2.60129e-07
2.55712e-07
2.51217e-07
2.46674e-07
2.42099e-07
2.37499e-07
2.32911e-07
2.28371e-07
2.23856e-07
2.19391e-07
2.14992e-07
2.10678e-07
2.0647e-07
2.0235e-07
1.98275e-07
1.94241e-07
1.90262e-07
1.86343e-07
1.82496e-07
1.78744e-07
1.75112e-07
1.7164e-07
1.68348e-07
1.65232e-07
1.62278e-07
1.59488e-07
1.56877e-07
1.54458e-07
1.52237e-07
1.50214e-07
1.48391e-07
1.46771e-07
1.45352e-07
1.4413e-07
1.43096e-07
1.42237e-07
1.41547e-07
1.41017e-07
1.40631e-07
1.40366e-07
1.40209e-07
1.40146e-07
1.40169e-07
1.40269e-07
1.40428e-07
1.40627e-07
1.4085e-07
1.41087e-07
1.41322e-07
1.41542e-07
1.41733e-07
1.41891e-07
1.42012e-07
1.42094e-07
1.42138e-07
1.4214e-07
1.42099e-07
1.42012e-07
1.41881e-07
1.41705e-07
1.41482e-07
1.41209e-07
1.40884e-07
1.40506e-07
1.40075e-07
1.39592e-07
1.39058e-07
1.38475e-07
1.37844e-07
1.37166e-07
1.36443e-07
1.35677e-07
1.34868e-07
1.34019e-07
1.33131e-07
1.32207e-07
1.31248e-07
1.30257e-07
1.29236e-07
1.28188e-07
1.27114e-07
1.26014e-07
1.24889e-07
1.23738e-07
1.22564e-07
1.21367e-07
1.20148e-07
1.18908e-07
1.17647e-07
1.16365e-07
1.15063e-07
1.13741e-07
1.12401e-07
1.11045e-07
1.09677e-07
1.08299e-07
1.06913e-07
1.05519e-07
1.04122e-07
1.02723e-07
1.01326e-07
9.99303e-08
9.8538e-08
9.71511e-08
9.5772e-08
9.44065e-08
9.30541e-08
9.17203e-08
9.04008e-08
8.9101e-08
8.78148e-08
8.65536e-08
8.53132e-08
8.41037e-08
8.29225e-08
8.17713e-08
8.06489e-08
7.95555e-08
7.85022e-08
7.74894e-08
7.65136e-08
7.55692e-08
7.46457e-08
7.37562e-08
7.28959e-08
7.20622e-08
7.12585e-08
7.04538e-08
6.96327e-08
6.88931e-08
6.81953e-08
6.74566e-08
6.68672e-08
6.58954e-08
6.47749e-08
6.42089e-08
6.38591e-08
6.27927e-08
6.37692e-08
6.52492e-08
6.92979e-08
7.03653e-08
7.26643e-08
7.35384e-08
7.459e-08
7.49335e-08
7.53434e-08
7.54536e-08
7.56676e-08
7.56297e-08
7.57564e-08
7.57659e-08
7.52642e-08
7.50882e-08
7.46482e-08
7.27407e-08
7.15481e-08
6.94996e-08
6.89222e-08
6.69712e-08
6.76498e-08
6.80205e-08
6.87519e-08
6.91309e-08
6.96389e-08
6.98997e-08
7.01776e-08
6.9935e-08
6.98792e-08
6.97704e-08
6.92837e-08
6.96511e-08
6.83399e-08
6.65169e-08
6.67774e-08
6.63146e-08
6.37449e-08
6.76919e-08
7.26465e-08
8.68097e-08
9.05897e-08
9.63912e-08
1.00268e-07
1.06443e-07
1.12793e-07
1.19802e-07
1.26021e-07
1.3146e-07
1.36099e-07
1.40273e-07
1.43874e-07
1.46831e-07
1.49323e-07
1.51393e-07
1.53232e-07
1.54983e-07
1.56551e-07
1.57872e-07
1.5906e-07
1.60208e-07
1.61268e-07
1.6215e-07
1.62943e-07
1.63787e-07
1.64677e-07
1.65492e-07
1.66228e-07
1.66877e-07
1.67469e-07
1.68026e-07
1.68532e-07
1.69016e-07
1.69517e-07
1.69997e-07
1.70381e-07
1.70642e-07
1.70811e-07
1.70947e-07
1.71098e-07
1.71266e-07
1.71443e-07
1.71598e-07
1.71719e-07
1.71832e-07
1.71932e-07
1.72001e-07
1.72066e-07
1.72171e-07
1.72322e-07
1.72493e-07
1.72656e-07
1.72785e-07
1.72874e-07
1.72936e-07
1.72982e-07
1.7303e-07
1.73088e-07
1.73155e-07
1.7323e-07
1.73307e-07
1.7338e-07
1.73451e-07
1.7353e-07
1.73623e-07
1.73742e-07
1.73853e-07
1.73991e-07
1.74071e-07
1.74253e-07
1.74352e-07
1.74618e-07
1.74674e-07
1.7487e-07
1.75274e-07
1.75163e-07
1.74233e-07
1.72735e-07
1.59045e-07
1.32639e-07
6.8366e-08
2.14253e-08
2.5621e-08
2.71726e-08
2.50111e-08
2.26482e-08
1.98925e-08
1.76972e-08
1.67212e-08
1.641e-08
1.66495e-08
1.76398e-08
1.93915e-08
2.18333e-08
2.52985e-08
3.00334e-08
3.56366e-08
4.13728e-08
4.59088e-08
4.86881e-08
5.01599e-08
5.18417e-08
5.78769e-08
7.21541e-08
1.01431e-07
1.58048e-07
2.59459e-07
4.44881e-07
6.35876e-07
7.73221e-07
8.54392e-07
8.66133e-07
8.73988e-07
9.7941e-07
1.14351e-06
1.26251e-06
1.36746e-06
1.52703e-06
1.64421e-06
1.64264e-06
1.43204e-06
1.06325e-06
7.68567e-07
6.44787e-07
6.49367e-07
6.32387e-07
5.17049e-07
3.93415e-07
3.39691e-07
3.58887e-07
4.13886e-07
4.06662e-07
3.2491e-07
2.3381e-07
1.66603e-07
1.26739e-07
1.09113e-07
1.10927e-07
1.3543e-07
1.87443e-07
2.64106e-07
3.40338e-07
3.85113e-07
3.84802e-07
3.54041e-07
3.06307e-07
2.43422e-07
1.77855e-07
1.31109e-07
1.0865e-07
1.04328e-07
1.12541e-07
1.31438e-07
1.61108e-07
1.96319e-07
2.27494e-07
2.55598e-07
2.95107e-07
4.0722e-07
4.61338e-07
4.39641e-07
4.99946e-07
5.80892e-07
6.21914e-07
6.0194e-07
5.18139e-07
4.79979e-07
4.23998e-07
3.6337e-07
2.98757e-07
2.32114e-07
1.7908e-07
1.44748e-07
1.29339e-07
1.29813e-07
1.41467e-07
1.60635e-07
1.86494e-07
2.15733e-07
2.50675e-07
2.91509e-07
3.11097e-07
2.98721e-07
2.70402e-07
2.23646e-07
1.81594e-07
1.44918e-07
1.11001e-07
8.33849e-08
6.73822e-08
6.01445e-08
5.77657e-08
5.79664e-08
5.91345e-08
5.97348e-08
6.16766e-08
6.33695e-08
6.96658e-08
7.1786e-08
6.72517e-08
6.21148e-08
5.96776e-08
5.89026e-08
6.01287e-08
5.89837e-08
5.61798e-08
5.39218e-08
5.2348e-08
5.21307e-08
5.30027e-08
5.37061e-08
5.41919e-08
5.41163e-08
5.32161e-08
5.30556e-08
5.36061e-08
5.4356e-08
5.46807e-08
5.45821e-08
5.4634e-08
5.50401e-08
5.55436e-08
5.56408e-08
5.52807e-08
5.44346e-08
5.3874e-08
5.3826e-08
5.41547e-08
5.43876e-08
5.36559e-08
5.25855e-08
5.21473e-08
5.2148e-08
5.21401e-08
5.17798e-08
5.12982e-08
5.07461e-08
5.03532e-08
5.00374e-08
4.96692e-08
4.91948e-08
4.86847e-08
4.81648e-08
4.77037e-08
4.74074e-08
4.70906e-08
4.64453e-08
4.5694e-08
4.51712e-08
4.49075e-08
4.46204e-08
4.40255e-08
4.3212e-08
4.25258e-08
4.19998e-08
4.16778e-08
4.14982e-08
4.11696e-08
4.06242e-08
3.9946e-08
3.91729e-08
3.84821e-08
3.79371e-08
3.7489e-08
3.71457e-08
3.67867e-08
3.62497e-08
3.55781e-08
3.49452e-08
3.44641e-08
3.40844e-08
3.36882e-08
3.32015e-08
3.26014e-08
3.19517e-08
3.13506e-08
3.08667e-08
3.05195e-08
3.0213e-08
2.98059e-08
2.92561e-08
2.86123e-08
2.80433e-08
2.75964e-08
2.72137e-08
2.6814e-08
2.63589e-08
2.58645e-08
2.54219e-08
2.50687e-08
2.47385e-08
2.43155e-08
2.37948e-08
2.33228e-08
2.29567e-08
2.26782e-08
2.24322e-08
2.21498e-08
2.17866e-08
2.13703e-08
2.09733e-08
2.06469e-08
2.03991e-08
2.0188e-08
1.99617e-08
1.96839e-08
1.93607e-08
1.90399e-08
1.87651e-08
1.85566e-08
1.839e-08
1.82182e-08
1.80071e-08
1.77565e-08
1.75088e-08
1.72993e-08
1.71348e-08
1.70064e-08
1.69017e-08
1.68084e-08
1.67177e-08
1.66231e-08
1.65154e-08
1.64071e-08
1.63277e-08
1.6302e-08
1.63411e-08
1.64127e-08
1.64517e-08
1.64391e-08
1.64168e-08
1.64367e-08
1.6514e-08
1.66213e-08
1.67178e-08
1.6784e-08
1.6827e-08
1.68754e-08
1.6951e-08
1.70444e-08
1.71348e-08
1.72056e-08
1.72501e-08
1.72874e-08
1.7352e-08
1.74608e-08
1.75901e-08
1.76727e-08
1.76787e-08
1.76544e-08
1.76489e-08
1.76749e-08
1.77298e-08
1.78057e-08
1.78783e-08
1.79115e-08
1.78944e-08
1.78545e-08
1.78202e-08
1.77958e-08
1.7779e-08
1.77857e-08
1.78216e-08
1.78404e-08
1.77987e-08
1.77217e-08
1.76561e-08
1.76094e-08
1.75706e-08
1.75424e-08
1.75194e-08
1.7478e-08
1.74053e-08
1.73158e-08
1.72264e-08
1.714e-08
1.70633e-08
1.69947e-08
1.69163e-08
1.68187e-08
1.67064e-08
1.65859e-08
1.64728e-08
1.63749e-08
1.62735e-08
1.61546e-08
1.60188e-08
1.58822e-08
1.57531e-08
1.56257e-08
1.54932e-08
1.53568e-08
1.52279e-08
1.51169e-08
1.50178e-08
1.49151e-08
1.48063e-08
1.47029e-08
1.46116e-08
1.45323e-08
1.44626e-08
1.44012e-08
1.4348e-08
1.43042e-08
1.42717e-08
1.42476e-08
1.42281e-08
1.42168e-08
1.42178e-08
1.42277e-08
1.42398e-08
1.42515e-08
1.42674e-08
1.42936e-08
1.43324e-08
1.43757e-08
1.441e-08
1.4432e-08
1.44524e-08
1.44761e-08
1.45013e-08
1.45249e-08
1.4544e-08
1.45576e-08
1.45674e-08
1.45753e-08
1.45784e-08
1.45759e-08
1.45685e-08
1.45584e-08
1.45483e-08
1.45388e-08
1.45273e-08
1.45102e-08
1.44879e-08
1.44642e-08
1.44414e-08
1.44177e-08
1.43926e-08
1.43622e-08
1.43263e-08
1.42879e-08
1.42482e-08
1.42068e-08
1.41657e-08
1.41276e-08
1.40883e-08
1.40421e-08
1.39859e-08
1.39261e-08
1.38734e-08
1.38282e-08
1.37761e-08
1.37127e-08
1.36458e-08
1.35832e-08
1.35258e-08
1.34697e-08
1.34133e-08
1.33604e-08
1.33063e-08
1.32418e-08
1.31682e-08
1.3102e-08
1.30431e-08
1.29854e-08
1.29271e-08
1.28671e-08
1.28035e-08
1.27387e-08
1.26801e-08
1.26246e-08
1.25655e-08
1.24999e-08
1.24369e-08
1.23773e-08
1.23191e-08
1.22628e-08
1.22139e-08
1.21636e-08
1.21084e-08
1.20519e-08
1.19942e-08
1.19439e-08
1.18976e-08
1.18678e-08
1.18275e-08
1.17854e-08
1.17241e-08
1.16939e-08
1.16575e-08
1.16229e-08
1.15801e-08
1.15208e-08
1.14901e-08
1.14298e-08
1.13975e-08
1.13711e-08
1.12964e-08
1.12879e-08
1.13147e-08
1.12114e-08
1.12615e-08
1.13791e-08
1.11765e-08
1.13601e-08
1.18638e-08
1.17909e-08
1.24621e-08
1.3219e-08
1.40201e-08
1.35946e-08
1.24268e-08
1.22403e-08
1.18217e-08
1.17006e-08
1.1546e-08
1.14666e-08
1.13663e-08
1.12715e-08
1.12632e-08
1.14519e-08
1.13435e-08
1.16615e-08
1.19172e-08
1.14342e-08
1.15473e-08
1.17187e-08
1.16304e-08
1.10025e-08
1.08782e-08
1.08567e-08
1.07725e-08
1.07355e-08
1.07141e-08
1.07414e-08
1.07637e-08
1.0793e-08
1.08002e-08
1.08679e-08
1.09508e-08
1.11739e-08
1.17372e-08
1.21121e-08
1.27107e-08
1.35596e-08
1.35135e-08
1.47387e-08
1.63091e-08
2.00676e-08
1.91698e-08
1.33183e-08
1.21668e-08
1.18241e-08
1.17965e-08
1.17496e-08
1.17573e-08
1.18208e-08
1.18623e-08
1.1917e-08
1.20621e-08
1.2195e-08
1.22654e-08
1.23236e-08
1.23564e-08
1.24419e-08
1.25803e-08
1.26741e-08
1.26939e-08
1.27404e-08
1.28156e-08
1.28654e-08
1.28536e-08
1.2857e-08
1.29421e-08
1.30738e-08
1.31574e-08
1.31885e-08
1.31717e-08
1.31879e-08
1.32178e-08
1.32347e-08
1.33155e-08
1.34473e-08
1.35522e-08
1.35506e-08
1.34642e-08
1.33686e-08
1.33181e-08
1.33434e-08
1.33934e-08
1.34656e-08
1.34865e-08
1.35024e-08
1.35468e-08
1.35588e-08
1.35468e-08
1.35587e-08
1.36188e-08
1.37081e-08
1.38017e-08
1.38748e-08
1.39115e-08
1.39205e-08
1.39145e-08
1.39077e-08
1.39119e-08
1.39259e-08
1.39453e-08
1.39654e-08
1.39808e-08
1.3988e-08
1.39913e-08
1.39997e-08
1.40153e-08
1.40412e-08
1.40532e-08
1.40591e-08
1.40466e-08
1.40587e-08
1.40721e-08
1.40814e-08
1.40851e-08
1.41039e-08
1.41109e-08
1.40776e-08
1.40353e-08
1.39195e-08
1.36204e-08
1.27934e-08
1.12804e-08
1.67874e-08
1.96184e-08
2.07399e-08
1.92582e-08
1.63411e-08
1.39814e-08
1.29952e-08
1.26643e-08
1.27697e-08
1.33677e-08
1.47133e-08
1.70822e-08
2.09525e-08
2.70119e-08
3.59036e-08
4.70644e-08
5.83957e-08
6.69963e-08
7.38247e-08
7.96564e-08
8.56331e-08
1.07655e-07
1.47557e-07
2.20729e-07
3.60059e-07
6.35376e-07
1.03029e-06
1.44937e-06
1.66381e-06
1.78799e-06
1.88556e-06
2.02276e-06
2.03386e-06
1.96279e-06
1.86512e-06
1.81231e-06
1.77935e-06
1.62465e-06
1.39561e-06
1.05743e-06
6.78968e-07
4.04426e-07
2.9231e-07
2.69967e-07
2.53045e-07
2.07511e-07
1.50595e-07
1.20149e-07
1.21218e-07
1.33216e-07
1.29324e-07
1.08146e-07
8.05766e-08
5.7333e-08
4.391e-08
3.855e-08
3.92247e-08
4.54104e-08
5.72672e-08
7.23746e-08
8.34696e-08
9.01964e-08
9.63303e-08
9.98176e-08
9.51929e-08
8.28678e-08
6.7999e-08
5.49512e-08
4.62218e-08
4.32532e-08
4.55039e-08
5.23017e-08
6.22899e-08
7.46127e-08
8.63417e-08
9.51279e-08
1.08654e-07
1.37323e-07
1.86213e-07
2.21262e-07
2.75427e-07
3.13657e-07
3.32058e-07
3.9612e-07
4.77692e-07
5.30718e-07
5.28628e-07
4.51871e-07
3.62098e-07
2.87901e-07
2.11124e-07
1.60418e-07
1.20834e-07
9.68156e-08
8.49391e-08
8.24161e-08
8.75277e-08
9.51804e-08
1.00918e-07
1.06561e-07
1.10053e-07
1.10883e-07
1.07803e-07
9.81413e-08
8.34554e-08
7.10693e-08
5.67615e-08
4.48892e-08
3.60727e-08
2.95336e-08
2.48315e-08
2.11598e-08
1.89465e-08
1.78706e-08
1.78233e-08
1.83442e-08
1.91779e-08
1.96449e-08
1.92514e-08
1.87861e-08
1.84178e-08
1.80603e-08
1.80058e-08
1.75177e-08
1.68125e-08
1.62375e-08
1.56591e-08
1.52922e-08
1.50953e-08
1.49666e-08
1.49124e-08
1.48704e-08
1.47616e-08
1.47488e-08
1.48389e-08
1.4963e-08
1.50202e-08
1.50259e-08
1.50516e-08
1.51134e-08
1.51889e-08
1.52212e-08
1.51922e-08
1.51095e-08
1.50655e-08
1.50899e-08
1.51457e-08
1.51763e-08
1.51084e-08
1.50228e-08
1.50119e-08
1.50484e-08
1.50671e-08
1.50428e-08
1.50232e-08
1.50147e-08
1.50194e-08
1.50196e-08
1.50077e-08
1.49794e-08
1.49484e-08
1.49236e-08
1.49092e-08
1.49121e-08
1.49073e-08
1.48644e-08
1.48023e-08
1.4762e-08
1.47533e-08
1.47392e-08
1.46896e-08
1.46067e-08
1.45218e-08
1.44521e-08
1.44047e-08
1.43745e-08
1.43289e-08
1.42498e-08
1.414e-08
1.4005e-08
1.38706e-08
1.37527e-08
1.36524e-08
1.35697e-08
1.3488e-08
1.33841e-08
1.32573e-08
1.31246e-08
1.30063e-08
1.29061e-08
1.28138e-08
1.2718e-08
1.26108e-08
1.24938e-08
1.23783e-08
1.22781e-08
1.21975e-08
1.2126e-08
1.2048e-08
1.19566e-08
1.18575e-08
1.17661e-08
1.16891e-08
1.16206e-08
1.1552e-08
1.14807e-08
1.14104e-08
1.13476e-08
1.12935e-08
1.12407e-08
1.1181e-08
1.11153e-08
1.10541e-08
1.10039e-08
1.09633e-08
1.09273e-08
1.08903e-08
1.0848e-08
1.08019e-08
1.07576e-08
1.07194e-08
1.06885e-08
1.0662e-08
1.06362e-08
1.06085e-08
1.05791e-08
1.05503e-08
1.05249e-08
1.05042e-08
1.0487e-08
1.04708e-08
1.04535e-08
1.04348e-08
1.04169e-08
1.04019e-08
1.03905e-08
1.03818e-08
1.03747e-08
1.03681e-08
1.03612e-08
1.03543e-08
1.03477e-08
1.03419e-08
1.03375e-08
1.03351e-08
1.03352e-08
1.0337e-08
1.03386e-08
1.03385e-08
1.03375e-08
1.03376e-08
1.03398e-08
1.03436e-08
1.03487e-08
1.03539e-08
1.03581e-08
1.03624e-08
1.03674e-08
1.03726e-08
1.03782e-08
1.03837e-08
1.03885e-08
1.0393e-08
1.03989e-08
1.04071e-08
1.04162e-08
1.04223e-08
1.04245e-08
1.04251e-08
1.04269e-08
1.04308e-08
1.04365e-08
1.04432e-08
1.04494e-08
1.04537e-08
1.04558e-08
1.04567e-08
1.04576e-08
1.04586e-08
1.04603e-08
1.04639e-08
1.04695e-08
1.04739e-08
1.04744e-08
1.04728e-08
1.04721e-08
1.04728e-08
1.04741e-08
1.04758e-08
1.04777e-08
1.04784e-08
1.04776e-08
1.0476e-08
1.04746e-08
1.0473e-08
1.04718e-08
1.04709e-08
1.047e-08
1.04685e-08
1.04658e-08
1.04616e-08
1.04574e-08
1.04543e-08
1.04515e-08
1.04477e-08
1.0442e-08
1.04354e-08
1.04294e-08
1.0424e-08
1.0418e-08
1.04111e-08
1.04043e-08
1.03987e-08
1.0394e-08
1.03889e-08
1.03827e-08
1.03764e-08
1.03709e-08
1.03664e-08
1.03626e-08
1.03594e-08
1.03565e-08
1.0354e-08
1.03523e-08
1.03511e-08
1.03505e-08
1.03505e-08
1.03515e-08
1.03528e-08
1.0354e-08
1.03551e-08
1.03568e-08
1.03594e-08
1.03628e-08
1.0366e-08
1.03683e-08
1.03693e-08
1.03701e-08
1.03711e-08
1.03721e-08
1.03729e-08
1.03732e-08
1.0373e-08
1.03724e-08
1.03716e-08
1.03703e-08
1.03685e-08
1.03664e-08
1.03643e-08
1.03625e-08
1.03608e-08
1.03589e-08
1.03566e-08
1.0354e-08
1.03515e-08
1.03492e-08
1.0347e-08
1.03448e-08
1.0342e-08
1.03388e-08
1.03354e-08
1.03321e-08
1.03287e-08
1.03254e-08
1.03222e-08
1.03189e-08
1.03151e-08
1.03108e-08
1.03063e-08
1.03023e-08
1.02986e-08
1.02944e-08
1.02892e-08
1.02835e-08
1.02779e-08
1.0273e-08
1.02684e-08
1.02636e-08
1.02589e-08
1.0254e-08
1.02489e-08
1.02435e-08
1.02385e-08
1.02339e-08
1.02296e-08
1.02251e-08
1.02204e-08
1.02158e-08
1.02112e-08
1.0207e-08
1.02028e-08
1.01985e-08
1.01941e-08
1.01901e-08
1.01862e-08
1.01823e-08
1.01784e-08
1.01748e-08
1.01713e-08
1.01679e-08
1.01646e-08
1.0161e-08
1.01577e-08
1.01547e-08
1.01528e-08
1.01502e-08
1.01482e-08
1.01452e-08
1.01446e-08
1.01411e-08
1.01386e-08
1.01372e-08
1.01345e-08
1.01361e-08
1.01321e-08
1.01366e-08
1.01334e-08
1.01321e-08
1.01349e-08
1.01365e-08
1.01314e-08
1.01351e-08
1.01462e-08
1.01413e-08
1.01613e-08
1.01963e-08
1.02124e-08
1.02365e-08
1.02506e-08
1.02868e-08
1.02359e-08
1.01752e-08
1.01607e-08
1.01428e-08
1.01339e-08
1.0128e-08
1.01264e-08
1.01285e-08
1.01282e-08
1.01341e-08
1.01436e-08
1.01326e-08
1.01341e-08
1.01371e-08
1.01145e-08
1.00999e-08
1.00904e-08
1.00967e-08
1.0088e-08
1.00892e-08
1.00881e-08
1.00885e-08
1.00878e-08
1.00907e-08
1.0092e-08
1.00942e-08
1.00977e-08
1.01063e-08
1.01264e-08
1.0155e-08
1.02003e-08
1.02701e-08
1.03319e-08
1.04269e-08
1.05107e-08
1.06194e-08
1.06945e-08
1.06568e-08
1.10168e-08
1.05891e-08
1.02287e-08
1.02019e-08
1.01834e-08
1.01728e-08
1.01636e-08
1.01563e-08
1.01474e-08
1.01365e-08
1.01309e-08
1.013e-08
1.01293e-08
1.01284e-08
1.01281e-08
1.0128e-08
1.01314e-08
1.01357e-08
1.01386e-08
1.01399e-08
1.01423e-08
1.0146e-08
1.01482e-08
1.01491e-08
1.01512e-08
1.01558e-08
1.01609e-08
1.01642e-08
1.01667e-08
1.01683e-08
1.017e-08
1.01722e-08
1.01753e-08
1.01805e-08
1.01866e-08
1.01909e-08
1.01915e-08
1.01902e-08
1.01882e-08
1.01874e-08
1.01887e-08
1.01906e-08
1.01931e-08
1.01943e-08
1.01956e-08
1.0198e-08
1.01997e-08
1.02005e-08
1.0202e-08
1.0205e-08
1.02091e-08
1.02131e-08
1.02165e-08
1.02186e-08
1.02197e-08
1.02201e-08
1.02203e-08
1.02207e-08
1.02214e-08
1.02225e-08
1.02237e-08
1.02246e-08
1.02252e-08
1.02257e-08
1.02264e-08
1.02276e-08
1.0229e-08
1.02297e-08
1.02302e-08
1.02301e-08
1.02309e-08
1.02317e-08
1.02322e-08
1.02326e-08
1.02337e-08
1.02344e-08
1.0233e-08
1.02325e-08
1.02292e-08
1.0215e-08
1.01699e-08
1.00813e-08
1.36957e-08
1.52068e-08
1.573e-08
1.47071e-08
1.3136e-08
1.2134e-08
1.17431e-08
1.17033e-08
1.20062e-08
1.28482e-08
1.4675e-08
1.79989e-08
2.35492e-08
3.24848e-08
4.58223e-08
6.26873e-08
8.02942e-08
9.72564e-08
1.21247e-07
1.57278e-07
2.03444e-07
2.54438e-07
3.35818e-07
4.60765e-07
6.42292e-07
8.7866e-07
1.21163e-06
1.51343e-06
1.45696e-06
1.39689e-06
1.4103e-06
1.44295e-06
1.47707e-06
1.51049e-06
1.5118e-06
1.42792e-06
1.2555e-06
1.06774e-06
8.77644e-07
5.63181e-07
3.22419e-07
1.8954e-07
1.3246e-07
1.1811e-07
1.07792e-07
8.54767e-08
6.47371e-08
5.20768e-08
5.06899e-08
5.32252e-08
5.16848e-08
4.53252e-08
3.59173e-08
2.82874e-08
2.3524e-08
2.12857e-08
2.12308e-08
2.24655e-08
2.42447e-08
2.55411e-08
2.62856e-08
2.74212e-08
3.02302e-08
3.45959e-08
3.71358e-08
3.56734e-08
3.21812e-08
2.80128e-08
2.46156e-08
2.27519e-08
2.32775e-08
2.5283e-08
2.86166e-08
3.33566e-08
3.96907e-08
4.82006e-08
5.79928e-08
6.77678e-08
8.60462e-08
1.0791e-07
1.43951e-07
1.89562e-07
2.27344e-07
2.76093e-07
3.11337e-07
3.25139e-07
3.54782e-07
3.95586e-07
4.39002e-07
4.34038e-07
3.82947e-07
2.79072e-07
2.01366e-07
1.36184e-07
1.0069e-07
7.6646e-08
6.33839e-08
5.952e-08
6.01016e-08
5.99269e-08
5.78451e-08
5.30008e-08
4.86683e-08
4.32857e-08
3.8439e-08
3.42568e-08
3.00232e-08
2.67808e-08
2.43779e-08
2.27306e-08
2.06887e-08
1.89072e-08
1.72527e-08
1.5928e-08
1.47322e-08
1.37559e-08
1.30515e-08
1.26524e-08
1.2434e-08
1.22954e-08
1.21743e-08
1.20735e-08
1.20122e-08
1.19275e-08
1.182e-08
1.17222e-08
1.15588e-08
1.13797e-08
1.12303e-08
1.10997e-08
1.10021e-08
1.09344e-08
1.08781e-08
1.08585e-08
1.08617e-08
1.08765e-08
1.0885e-08
1.0885e-08
1.08887e-08
1.08947e-08
1.09062e-08
1.09146e-08
1.09147e-08
1.09092e-08
1.09097e-08
1.09179e-08
1.09278e-08
1.0933e-08
1.09282e-08
1.09238e-08
1.09286e-08
1.09383e-08
1.09442e-08
1.09435e-08
1.09446e-08
1.09493e-08
1.09562e-08
1.09616e-08
1.09645e-08
1.09636e-08
1.09607e-08
1.09588e-08
1.09588e-08
1.09614e-08
1.09625e-08
1.09583e-08
1.09491e-08
1.09407e-08
1.09367e-08
1.09322e-08
1.09229e-08
1.09073e-08
1.08885e-08
1.08707e-08
1.08557e-08
1.08438e-08
1.08304e-08
1.08114e-08
1.07862e-08
1.07557e-08
1.07245e-08
1.0696e-08
1.0671e-08
1.06493e-08
1.06286e-08
1.06056e-08
1.05794e-08
1.05517e-08
1.05253e-08
1.05019e-08
1.04811e-08
1.04616e-08
1.04417e-08
1.0421e-08
1.04002e-08
1.03811e-08
1.03647e-08
1.03504e-08
1.03364e-08
1.03217e-08
1.03064e-08
1.02918e-08
1.02787e-08
1.0267e-08
1.02559e-08
1.0245e-08
1.02348e-08
1.02255e-08
1.02171e-08
1.02089e-08
1.02001e-08
1.01915e-08
1.01835e-08
1.01767e-08
1.01708e-08
1.01654e-08
1.01602e-08
1.01547e-08
1.01493e-08
1.01441e-08
1.01394e-08
1.01354e-08
1.01318e-08
1.01285e-08
1.01253e-08
1.01222e-08
1.01191e-08
1.01163e-08
1.01139e-08
1.01117e-08
1.01097e-08
1.01078e-08
1.01058e-08
1.01041e-08
1.01025e-08
1.01012e-08
1.01001e-08
1.00992e-08
1.00982e-08
1.00974e-08
1.00965e-08
1.00958e-08
1.00952e-08
1.00948e-08
1.00945e-08
1.00943e-08
1.00941e-08
1.0094e-08
1.00939e-08
1.00938e-08
1.00939e-08
1.0094e-08
1.00942e-08
1.00943e-08
1.00945e-08
1.00946e-08
1.00949e-08
1.00953e-08
1.00955e-08
1.00957e-08
1.00958e-08
1.00959e-08
1.00962e-08
1.00966e-08
1.00971e-08
1.00977e-08
1.0098e-08
1.00982e-08
1.00983e-08
1.00986e-08
1.0099e-08
1.00994e-08
1.00998e-08
1.01002e-08
1.01006e-08
1.01009e-08
1.01012e-08
1.01014e-08
1.01016e-08
1.01018e-08
1.01021e-08
1.01026e-08
1.0103e-08
1.01032e-08
1.01033e-08
1.01035e-08
1.01037e-08
1.01039e-08
1.01041e-08
1.01043e-08
1.01046e-08
1.01047e-08
1.01048e-08
1.01049e-08
1.01049e-08
1.01048e-08
1.01049e-08
1.01049e-08
1.0105e-08
1.01049e-08
1.01047e-08
1.01044e-08
1.01042e-08
1.01041e-08
1.01039e-08
1.01034e-08
1.01028e-08
1.01023e-08
1.01019e-08
1.01014e-08
1.01007e-08
1.01001e-08
1.00995e-08
1.0099e-08
1.00985e-08
1.00978e-08
1.0097e-08
1.00964e-08
1.00958e-08
1.00953e-08
1.00948e-08
1.00943e-08
1.00938e-08
1.00934e-08
1.00931e-08
1.00928e-08
1.00926e-08
1.00924e-08
1.00923e-08
1.00921e-08
1.0092e-08
1.00919e-08
1.00919e-08
1.00919e-08
1.0092e-08
1.00919e-08
1.00918e-08
1.00916e-08
1.00914e-08
1.00913e-08
1.00911e-08
1.00909e-08
1.00907e-08
1.00905e-08
1.00903e-08
1.009e-08
1.00897e-08
1.00893e-08
1.00889e-08
1.00886e-08
1.00883e-08
1.00879e-08
1.00875e-08
1.0087e-08
1.00866e-08
1.00862e-08
1.00858e-08
1.00855e-08
1.00851e-08
1.00846e-08
1.00842e-08
1.00838e-08
1.00834e-08
1.0083e-08
1.00826e-08
1.00822e-08
1.00818e-08
1.00814e-08
1.0081e-08
1.00806e-08
1.00802e-08
1.00798e-08
1.00794e-08
1.00788e-08
1.00783e-08
1.00779e-08
1.00775e-08
1.0077e-08
1.00766e-08
1.00761e-08
1.00756e-08
1.00752e-08
1.00747e-08
1.00743e-08
1.00739e-08
1.00735e-08
1.0073e-08
1.00725e-08
1.00719e-08
1.00713e-08
1.00706e-08
1.00698e-08
1.00689e-08
1.00682e-08
1.00677e-08
1.00671e-08
1.00663e-08
1.00654e-08
1.00646e-08
1.00639e-08
1.00636e-08
1.00634e-08
1.00629e-08
1.00625e-08
1.00627e-08
1.00638e-08
1.0063e-08
1.00637e-08
1.00627e-08
1.00641e-08
1.00648e-08
1.00647e-08
1.00649e-08
1.0065e-08
1.0065e-08
1.00657e-08
1.00668e-08
1.00675e-08
1.00691e-08
1.00714e-08
1.0073e-08
1.0073e-08
1.00722e-08
1.00713e-08
1.0071e-08
1.00711e-08
1.00715e-08
1.00705e-08
1.00689e-08
1.00699e-08
1.00678e-08
1.00663e-08
1.00667e-08
1.0068e-08
1.00693e-08
1.00713e-08
1.00738e-08
1.00763e-08
1.00787e-08
1.00788e-08
1.00769e-08
1.0072e-08
1.0068e-08
1.00645e-08
1.00634e-08
1.00618e-08
1.00608e-08
1.00603e-08
1.00607e-08
1.00614e-08
1.00624e-08
1.00636e-08
1.00671e-08
1.00707e-08
1.00749e-08
1.0084e-08
1.01015e-08
1.01285e-08
1.01624e-08
1.01976e-08
1.02008e-08
1.01912e-08
1.01806e-08
1.01809e-08
1.0167e-08
1.01723e-08
1.01401e-08
1.01045e-08
1.00995e-08
1.00855e-08
1.00782e-08
1.00757e-08
1.00737e-08
1.0072e-08
1.00706e-08
1.00693e-08
1.00679e-08
1.00665e-08
1.00652e-08
1.00641e-08
1.00631e-08
1.00622e-08
1.00613e-08
1.00607e-08
1.00605e-08
1.00604e-08
1.00602e-08
1.00599e-08
1.00597e-08
1.00598e-08
1.00597e-08
1.00596e-08
1.00598e-08
1.00602e-08
1.00604e-08
1.00606e-08
1.00607e-08
1.00607e-08
1.00608e-08
1.00611e-08
1.00614e-08
1.00617e-08
1.0062e-08
1.00622e-08
1.00622e-08
1.00622e-08
1.00622e-08
1.00622e-08
1.00622e-08
1.00624e-08
1.00625e-08
1.00627e-08
1.00628e-08
1.0063e-08
1.00631e-08
1.00633e-08
1.00634e-08
1.00636e-08
1.00638e-08
1.0064e-08
1.00641e-08
1.00642e-08
1.00642e-08
1.00643e-08
1.00643e-08
1.00643e-08
1.00644e-08
1.00644e-08
1.00644e-08
1.00644e-08
1.00644e-08
1.00643e-08
1.00643e-08
1.00644e-08
1.00644e-08
1.00644e-08
1.00644e-08
1.00644e-08
1.00644e-08
1.00645e-08
1.00644e-08
1.00644e-08
1.00646e-08
1.00648e-08
1.0065e-08
1.00655e-08
1.00658e-08
1.00632e-08
1.00514e-08
1.00258e-08
1.19447e-08
1.27136e-08
1.29711e-08
1.24923e-08
1.18117e-08
1.13589e-08
1.12161e-08
1.12925e-08
1.16513e-08
1.2531e-08
1.44033e-08
1.77768e-08
2.34403e-08
3.27474e-08
4.67766e-08
6.4192e-08
8.15638e-08
9.68965e-08
1.25829e-07
1.72444e-07
2.36339e-07
3.08915e-07
3.78175e-07
4.46805e-07
5.21e-07
6.07427e-07
7.19097e-07
7.44778e-07
6.84713e-07
6.76046e-07
7.49503e-07
8.44312e-07
9.19855e-07
9.37791e-07
8.95074e-07
8.18579e-07
7.24511e-07
6.36938e-07
4.49162e-07
2.56938e-07
1.41115e-07
8.6439e-08
6.24811e-08
5.32815e-08
4.68131e-08
3.89094e-08
3.20591e-08
2.76022e-08
2.67727e-08
2.72645e-08
2.67452e-08
2.44138e-08
2.1206e-08
1.84128e-08
1.65498e-08
1.54751e-08
1.50585e-08
1.50253e-08
1.5047e-08
1.50046e-08
1.50375e-08
1.54326e-08
1.64487e-08
1.81717e-08
1.97232e-08
2.01468e-08
1.94701e-08
1.80528e-08
1.66397e-08
1.57715e-08
1.56653e-08
1.6284e-08
1.74537e-08
1.92696e-08
2.19495e-08
2.57876e-08
3.11905e-08
3.76928e-08
4.55031e-08
5.55209e-08
6.87522e-08
9.0587e-08
1.13138e-07
1.43362e-07
1.74596e-07
1.94672e-07
2.16292e-07
2.46852e-07
2.69317e-07
2.75864e-07
2.77628e-07
2.71856e-07
2.45482e-07
2.06258e-07
1.57833e-07
1.15111e-07
7.77675e-08
5.63353e-08
4.35825e-08
3.70576e-08
3.4145e-08
3.24558e-08
2.99871e-08
2.71831e-08
2.44727e-08
2.22317e-08
2.02895e-08
1.87538e-08
1.76971e-08
1.71157e-08
1.66307e-08
1.61423e-08
1.57951e-08
1.52391e-08
1.46579e-08
1.40036e-08
1.33272e-08
1.26816e-08
1.20964e-08
1.1614e-08
1.12725e-08
1.10648e-08
1.09298e-08
1.08354e-08
1.07869e-08
1.07606e-08
1.07384e-08
1.07196e-08
1.06958e-08
1.06358e-08
1.05552e-08
1.04817e-08
1.04194e-08
1.03739e-08
1.03436e-08
1.03248e-08
1.03096e-08
1.02969e-08
1.02884e-08
1.02824e-08
1.02793e-08
1.02778e-08
1.0276e-08
1.02747e-08
1.02751e-08
1.02764e-08
1.02777e-08
1.02782e-08
1.0278e-08
1.02785e-08
1.02805e-08
1.02827e-08
1.02842e-08
1.02847e-08
1.02856e-08
1.02874e-08
1.02897e-08
1.02916e-08
1.02929e-08
1.02932e-08
1.02929e-08
1.02927e-08
1.0293e-08
1.02936e-08
1.02937e-08
1.02928e-08
1.02908e-08
1.02886e-08
1.02871e-08
1.02856e-08
1.02831e-08
1.02793e-08
1.02746e-08
1.02701e-08
1.02659e-08
1.02621e-08
1.02581e-08
1.02531e-08
1.02469e-08
1.02399e-08
1.02329e-08
1.02263e-08
1.02202e-08
1.02146e-08
1.02093e-08
1.02039e-08
1.01982e-08
1.01922e-08
1.01863e-08
1.01809e-08
1.01761e-08
1.01716e-08
1.01674e-08
1.01631e-08
1.01588e-08
1.01548e-08
1.01512e-08
1.01479e-08
1.01448e-08
1.01418e-08
1.01387e-08
1.01358e-08
1.0133e-08
1.01305e-08
1.01281e-08
1.01257e-08
1.01235e-08
1.01214e-08
1.01194e-08
1.01175e-08
1.01156e-08
1.01137e-08
1.01119e-08
1.01102e-08
1.01086e-08
1.01071e-08
1.01057e-08
1.01043e-08
1.01029e-08
1.01016e-08
1.01002e-08
1.0099e-08
1.00978e-08
1.00967e-08
1.00957e-08
1.00947e-08
1.00937e-08
1.00928e-08
1.00919e-08
1.0091e-08
1.00901e-08
1.00894e-08
1.00886e-08
1.00879e-08
1.00873e-08
1.00867e-08
1.00861e-08
1.00855e-08
1.0085e-08
1.00845e-08
1.00841e-08
1.00837e-08
1.00833e-08
1.00829e-08
1.00825e-08
1.00822e-08
1.0082e-08
1.00817e-08
1.00815e-08