/*--------------------------------*- C++ -*----------------------------------*\
| =========                 |                                                 |
| \\      /  F ield         | OpenFOAM: The Open Source CFD Toolbox           |
|  \\    /   O peration     | Version:  v2006                                 |
|   \\  /    A nd           | Website:  www.openfoam.com                      |
|    \\/     M anipulation  |                                                 |
\*---------------------------------------------------------------------------*/
FoamFile
{
    version     2.0;
    format      ascii;
    class       volScalarField;
    location    "9.3";
    object      omega;
}
// * * * * * * * * * * * * * * * * * * * * * * * * * * * * * * * * * * * * * //

dimensions      [0 0 -1 0 0 0 0];


internalField   nonuniform List<scalar> 
33000
(
0.803945
0.804941
0.80538
0.805145
0.804562
0.804019
0.803684
0.803518
0.803441
0.803434
0.80354
0.803736
0.803961
0.804179
0.804399
0.804632
0.804863
0.805086
0.805283
0.805496
0.805789
0.806264
0.807165
0.808963
0.812271
0.817377
0.824468
0.833651
0.842772
0.849514
0.853501
0.856408
0.858703
0.861922
0.867744
0.880743
0.905629
0.937942
0.966524
0.984994
0.994489
0.998038
0.999844
0.999864
0.99685
0.9933
0.987958
0.985994
0.986839
0.986994
0.983712
0.978089
0.970592
0.965054
0.961648
0.960731
0.962638
0.967539
0.974873
0.982601
0.987184
0.988488
0.986579
0.981692
0.974299
0.964557
0.952303
0.938058
0.924598
0.913879
0.905285
0.898704
0.893586
0.889614
0.886462
0.884681
0.884303
0.885065
0.886651
0.888971
0.89067
0.894429
0.898975
0.904597
0.911661
0.918423
0.92362
0.927387
0.929297
0.929735
0.928066
0.924753
0.91938
0.912294
0.904015
0.895378
0.888899
0.883848
0.881806
0.88177
0.883861
0.886299
0.887858
0.88895
0.889621
0.890295
0.891166
0.891472
0.891132
0.890183
0.888863
0.887154
0.885008
0.882171
0.878563
0.874581
0.871261
0.869733
0.87037
0.87116
0.871696
0.87209
0.872352
0.872933
0.873662
0.874131
0.874425
0.87457
0.874661
0.874759
0.87486
0.874922
0.874911
0.874808
0.874646
0.874483
0.874352
0.87424
0.874123
0.87399
0.87385
0.873715
0.873561
0.873364
0.87311
0.87281
0.872505
0.872213
0.871908
0.871554
0.871124
0.870656
0.870193
0.869737
0.869264
0.868761
0.868233
0.867693
0.867151
0.866609
0.866063
0.865509
0.864943
0.864371
0.863816
0.863272
0.862708
0.862117
0.86153
0.860966
0.860404
0.859799
0.859142
0.858476
0.857847
0.857281
0.856763
0.856252
0.855711
0.855131
0.854531
0.853942
0.853391
0.852893
0.852437
0.851991
0.85152
0.851028
0.850562
0.85015
0.849776
0.849404
0.849015
0.848616
0.848233
0.847905
0.847662
0.847499
0.847372
0.847228
0.847063
0.846913
0.846825
0.846802
0.846811
0.846818
0.846811
0.846816
0.84688
0.846997
0.847105
0.847145
0.847173
0.847261
0.8474
0.847581
0.847797
0.847992
0.848127
0.84824
0.848375
0.848555
0.848767
0.849004
0.849234
0.849406
0.849539
0.849658
0.849789
0.849943
0.850116
0.850283
0.850383
0.850431
0.850463
0.850491
0.850526
0.850555
0.850563
0.850551
0.850525
0.850475
0.850379
0.850238
0.850078
0.849925
0.849776
0.849634
0.849466
0.84921
0.848928
0.848668
0.848411
0.848149
0.84788
0.847571
0.847229
0.84688
0.846529
0.846178
0.845814
0.845433
0.845034
0.84462
0.844207
0.843803
0.843405
0.842982
0.84252
0.842045
0.841582
0.841123
0.84066
0.840199
0.839739
0.839261
0.83876
0.838253
0.837749
0.837248
0.836745
0.836244
0.835748
0.835247
0.834724
0.834195
0.833675
0.833157
0.832638
0.832119
0.831602
0.831077
0.830543
0.830002
0.829457
0.828909
0.828361
0.82782
0.82728
0.826746
0.82622
0.825704
0.8252
0.824706
0.824217
0.823732
0.823252
0.822779
0.822313
0.821859
0.821419
0.820998
0.820598
0.82022
0.819862
0.819523
0.819205
0.818911
0.818641
0.818395
0.818173
0.817975
0.817802
0.817653
0.817527
0.817422
0.817337
0.817272
0.817224
0.817191
0.817171
0.817163
0.817165
0.817176
0.817195
0.817219
0.817245
0.817273
0.817301
0.817327
0.81735
0.817368
0.817382
0.817392
0.817397
0.817397
0.817391
0.817381
0.817364
0.817343
0.817315
0.817282
0.817243
0.817197
0.817144
0.817086
0.817021
0.81695
0.816874
0.816792
0.816704
0.816611
0.816513
0.81641
0.816303
0.816191
0.816075
0.815955
0.815831
0.815704
0.815574
0.81544
0.815304
0.815164
0.815022
0.814877
0.814729
0.814579
0.814426
0.81427
0.814112
0.813952
0.813789
0.813624
0.813458
0.813291
0.813122
0.812953
0.812783
0.812613
0.812443
0.812273
0.812104
0.811935
0.811767
0.811601
0.811436
0.811274
0.811113
0.810955
0.810798
0.810644
0.810493
0.810346
0.810202
0.810061
0.809924
0.809791
0.809662
0.809539
0.80942
0.809304
0.809192
0.809083
0.808978
0.808876
0.808778
0.80868
0.808579
0.808489
0.808404
0.808313
0.808242
0.808123
0.807985
0.807916
0.807873
0.807742
0.807863
0.808046
0.808544
0.808676
0.808958
0.809065
0.809193
0.809235
0.809285
0.809298
0.809324
0.809319
0.809334
0.809335
0.809274
0.809252
0.809198
0.808964
0.808817
0.808566
0.808494
0.808255
0.808338
0.808384
0.808473
0.80852
0.808582
0.808614
0.808648
0.808618
0.808611
0.808598
0.808538
0.808583
0.808422
0.808199
0.808231
0.808173
0.807858
0.808339
0.808942
0.810674
0.811137
0.811847
0.812323
0.813077
0.813852
0.814706
0.815462
0.816124
0.816687
0.817194
0.817631
0.81799
0.818292
0.818543
0.818766
0.818978
0.819168
0.819327
0.819471
0.81961
0.819738
0.819845
0.819941
0.820043
0.820151
0.820249
0.820338
0.820417
0.820488
0.820556
0.820617
0.820675
0.820736
0.820794
0.82084
0.820871
0.820892
0.820908
0.820926
0.820946
0.820968
0.820986
0.821001
0.821014
0.821026
0.821034
0.821042
0.821054
0.821072
0.821092
0.821111
0.821126
0.821137
0.821144
0.821149
0.821154
0.82116
0.821168
0.821176
0.821184
0.821193
0.8212
0.821209
0.821219
0.821233
0.821245
0.821261
0.82127
0.821291
0.821302
0.821333
0.821339
0.821361
0.821409
0.821395
0.821283
0.821106
0.819461
0.816277
0.808438
0.639157
0.724626
0.763354
0.770569
0.767175
0.731234
0.69121
0.664988
0.657683
0.64666
0.646671
0.650778
0.688283
0.75404
0.815471
0.864357
0.898841
0.932212
0.972048
1.01209
1.05476
1.09012
1.11771
1.15809
1.24934
1.41564
1.62494
1.74749
1.80734
1.8365
1.82995
1.82499
1.8608
1.87897
1.80713
1.6943
1.62571
1.56239
1.4686
1.32209
1.13403
0.968124
0.875851
0.837778
0.808563
0.75636
0.683501
0.643234
0.644109
0.658082
0.648847
0.605983
0.544421
0.494474
0.462197
0.445654
0.444886
0.461626
0.492034
0.527061
0.558604
0.581049
0.593996
0.607387
0.616374
0.609221
0.59276
0.581231
0.583171
0.599773
0.636186
0.697651
0.781558
0.869818
0.938794
0.9962
1.05641
1.14359
1.16805
1.1641
1.26891
1.39379
1.43377
1.41642
1.32382
1.27091
1.20235
1.12083
1.02408
0.904887
0.7954
0.706643
0.650286
0.63325
0.653168
0.700904
0.772069
0.859512
0.962643
1.07242
1.16347
1.1946
1.17111
1.08012
0.965274
0.836216
0.700763
0.569798
0.464213
0.384894
0.326718
0.290977
0.276321
0.277551
0.291416
0.31183
0.33711
0.358178
0.371423
0.384932
0.376474
0.337146
0.304278
0.272818
0.246861
0.227359
0.212913
0.203183
0.198178
0.19538
0.194057
0.193153
0.191566
0.191259
0.192327
0.193924
0.19497
0.195508
0.196296
0.197531
0.19886
0.199613
0.199639
0.198971
0.198764
0.199413
0.200549
0.201458
0.201068
0.200328
0.200522
0.201365
0.202102
0.202339
0.202565
0.202813
0.20322
0.203611
0.203863
0.203906
0.203904
0.203919
0.204015
0.204338
0.204558
0.204173
0.203465
0.203044
0.203036
0.202919
0.202156
0.200756
0.199293
0.198013
0.197103
0.196453
0.195421
0.193695
0.191336
0.188488
0.185656
0.183135
0.180916
0.178961
0.176911
0.174327
0.171274
0.168238
0.165637
0.163415
0.161209
0.158695
0.155765
0.152642
0.149686
0.147145
0.14504
0.143075
0.140831
0.138134
0.135143
0.132329
0.129882
0.127675
0.125472
0.123139
0.120677
0.118341
0.116293
0.114348
0.112123
0.109555
0.107106
0.105045
0.103317
0.101755
0.100114
0.0981734
0.0959958
0.0938788
0.0920546
0.0905763
0.0892988
0.088047
0.086642
0.0850534
0.0834712
0.0820768
0.0809722
0.0800868
0.0792604
0.0783466
0.0772813
0.0762259
0.0753285
0.0746326
0.0741212
0.073732
0.0734032
0.0730963
0.0727892
0.0724446
0.0720833
0.0718027
0.0717026
0.0718384
0.0721024
0.0723011
0.0723254
0.0722382
0.0722716
0.0725307
0.0729058
0.0732566
0.0735155
0.0736674
0.0738169
0.0740584
0.0743679
0.0746744
0.0748996
0.0750408
0.0751779
0.0754204
0.0758291
0.0763277
0.0766854
0.0767605
0.0766929
0.0766931
0.0768552
0.0771634
0.0775652
0.0779659
0.0782434
0.0783325
0.0783223
0.0783341
0.0784042
0.078537
0.0787908
0.0791746
0.0795058
0.0795994
0.079527
0.0795014
0.0795857
0.0797359
0.0799532
0.0802036
0.0803817
0.0804184
0.0803815
0.0803607
0.0803824
0.0804762
0.0806221
0.0807263
0.0807251
0.080636
0.080499
0.0804072
0.0804023
0.0803751
0.0802353
0.079981
0.0797104
0.0794711
0.0792144
0.0788856
0.0784917
0.0781196
0.0778368
0.0775891
0.0772526
0.0768125
0.0763729
0.0759932
0.0756703
0.0753868
0.0751389
0.074932
0.0747756
0.0746838
0.0746363
0.0746131
0.0746554
0.0747942
0.0749899
0.075181
0.0753612
0.0755858
0.0759016
0.0763052
0.0766991
0.0769655
0.0770946
0.0772017
0.0773422
0.0774968
0.0776285
0.0777115
0.0777461
0.077759
0.0777669
0.0777328
0.0776372
0.0774917
0.077333
0.0771941
0.0770755
0.076942
0.0767629
0.0765526
0.07635
0.0761648
0.0759814
0.0757972
0.0755835
0.0753374
0.0750819
0.0748303
0.0745805
0.0743478
0.0741496
0.0739487
0.0736942
0.0733614
0.073004
0.0727085
0.072471
0.0721716
0.0717689
0.0713306
0.0709306
0.0705782
0.0702426
0.069908
0.0696032
0.0692805
0.068848
0.0683143
0.0678383
0.0674343
0.0670511
0.0666619
0.0662461
0.0657786
0.0652869
0.0648521
0.064446
0.0639913
0.0634526
0.062931
0.0624404
0.061961
0.0614987
0.061108
0.0606833
0.0601734
0.0596184
0.0590414
0.0585441
0.0580929
0.0578069
0.0573832
0.0568858
0.0561522
0.0557628
0.0553019
0.0548837
0.054354
0.0536181
0.0531987
0.0524572
0.0520332
0.0516081
0.0506724
0.0503578
0.0506367
0.0491398
0.0496026
0.0505646
0.0480751
0.0502078
0.0570114
0.0571394
0.0660202
0.0763526
0.0877254
0.0793084
0.0624353
0.0595789
0.0537745
0.0522697
0.0501824
0.0491255
0.04797
0.047131
0.0471369
0.0500508
0.0506635
0.0554444
0.0590065
0.0530233
0.0529397
0.0518715
0.0479941
0.0381425
0.0362634
0.0357326
0.0349845
0.034742
0.0353525
0.0364196
0.0376421
0.0388156
0.0394323
0.0406227
0.0414766
0.0461686
0.0603464
0.0773727
0.102461
0.132962
0.159217
0.163736
0.170976
0.219569
0.193592
0.108537
0.0878205
0.0776265
0.0719298
0.0662085
0.0612157
0.0570489
0.0535002
0.0510289
0.0501085
0.049786
0.0495212
0.0495294
0.0496129
0.050213
0.0512377
0.052018
0.052364
0.0528936
0.0536126
0.0541583
0.0543222
0.054585
0.0553434
0.0563674
0.0570776
0.0574506
0.0575344
0.0577812
0.0580983
0.0583464
0.0589311
0.0597686
0.0604147
0.0604356
0.0599552
0.0594055
0.059112
0.0592561
0.0595716
0.0600301
0.0602377
0.0604187
0.0607425
0.0608975
0.0609325
0.0611153
0.0615866
0.0622398
0.0629182
0.0634618
0.0637697
0.0638868
0.0638949
0.0638885
0.0639446
0.0640671
0.064234
0.064412
0.0645655
0.0646742
0.0647652
0.0648917
0.0650693
0.0653056
0.0654674
0.0655813
0.0655926
0.0657302
0.0658752
0.0659914
0.0661103
0.0664855
0.0670276
0.0678219
0.0698793
0.0721992
0.0725168
0.0596105
0.0296985
0.364922
0.461308
0.511353
0.482027
0.391647
0.297816
0.24572
0.221141
0.209049
0.202323
0.20606
0.215958
0.261364
0.319292
0.381031
0.45493
0.541761
0.634951
0.744731
0.862863
0.994616
1.14672
1.26415
1.37253
1.51137
1.6954
1.89551
2.09618
2.19351
2.2631
2.33072
2.41101
2.38819
2.27521
2.10255
1.93048
1.78343
1.60456
1.41129
1.18711
0.945299
0.741008
0.636678
0.597974
0.572265
0.533231
0.473125
0.436299
0.433884
0.440164
0.432157
0.411718
0.376692
0.336918
0.308727
0.295761
0.296473
0.306329
0.320948
0.339323
0.353055
0.363425
0.376892
0.393508
0.404885
0.406232
0.397661
0.376148
0.348016
0.331464
0.33446
0.357205
0.392604
0.432236
0.464985
0.487817
0.52085
0.586831
0.691575
0.773185
0.883446
0.966954
1.01855
1.13323
1.27645
1.39361
1.44351
1.38893
1.28922
1.17816
1.02113
0.888283
0.762481
0.667618
0.606048
0.577415
0.580868
0.603069
0.630321
0.663436
0.690316
0.709557
0.719057
0.704039
0.666311
0.630026
0.573873
0.511015
0.446497
0.383097
0.323356
0.26458
0.211527
0.167984
0.142461
0.134566
0.137275
0.141927
0.144526
0.147634
0.153546
0.157832
0.166077
0.155751
0.126435
0.103285
0.0838627
0.0712798
0.0623247
0.0563002
0.0522793
0.0499883
0.0485274
0.048268
0.0488614
0.049742
0.050257
0.0504153
0.0506841
0.0510166
0.0515488
0.0519787
0.052118
0.0520665
0.0522044
0.05256
0.0529467
0.0531929
0.0531863
0.0532572
0.0536069
0.0540461
0.0543248
0.0544389
0.0547144
0.0551604
0.0556234
0.0559307
0.0561082
0.0561808
0.0562444
0.0564027
0.0566391
0.0569004
0.0570401
0.0569737
0.0567455
0.0565762
0.0565871
0.0565511
0.0562898
0.0557514
0.0550712
0.0544481
0.0539572
0.0535637
0.0530528
0.0522529
0.0511682
0.049863
0.0485224
0.0472619
0.046113
0.04509
0.0440771
0.0428938
0.0415081
0.0400441
0.0387065
0.0375621
0.0365049
0.0353983
0.0341628
0.032823
0.0315033
0.0303441
0.0293731
0.028492
0.0275559
0.0264862
0.0253452
0.0242713
0.0233304
0.0224808
0.0216426
0.0207835
0.0199159
0.019098
0.0183695
0.0176864
0.0169563
0.0161581
0.0153924
0.0147318
0.0141618
0.0136442
0.0131373
0.0125935
0.0120104
0.0114387
0.0109253
0.0104923
0.0101205
0.00977601
0.00941648
0.00902814
0.00864483
0.00829693
0.00800668
0.00776475
0.00753985
0.00730802
0.00706449
0.00683435
0.00663585
0.00647477
0.00634664
0.006236
0.006135
0.00604222
0.00595934
0.0058851
0.00581819
0.00576698
0.00574237
0.00574959
0.00577563
0.0058008
0.00581465
0.00582239
0.00584614
0.00589445
0.00595417
0.00601654
0.00607902
0.00613624
0.00619722
0.0062674
0.00633646
0.00640031
0.00645919
0.00651563
0.00657465
0.0066489
0.00674644
0.00685364
0.00693559
0.00697642
0.00700137
0.00703828
0.00709856
0.00717713
0.00726334
0.0073503
0.00742721
0.00748204
0.00751923
0.0075508
0.00758542
0.00763231
0.00770233
0.00779166
0.00787185
0.00791669
0.00793553
0.0079611
0.0080033
0.00805216
0.00810738
0.00816764
0.00821857
0.00825216
0.00827755
0.00830214
0.00832588
0.00835465
0.0083904
0.00842755
0.00845825
0.00847243
0.00846561
0.00845596
0.00846097
0.00847177
0.00846853
0.00843732
0.00839281
0.00835457
0.00832223
0.00827852
0.00821643
0.00815277
0.00810244
0.00806214
0.00801135
0.00793825
0.00785891
0.00778871
0.00773065
0.00768276
0.00764073
0.00760156
0.00756679
0.00754124
0.00752503
0.00751688
0.00752121
0.00753892
0.00756224
0.00758416
0.007607
0.00763963
0.00768706
0.00774542
0.00780027
0.00783863
0.00785613
0.00786756
0.00788126
0.00789553
0.00790782
0.00791519
0.00791576
0.00791236
0.00790482
0.00788487
0.00785367
0.00781763
0.00778301
0.00775319
0.00772633
0.00769651
0.00765911
0.00761656
0.00757574
0.00753934
0.0075062
0.00747474
0.00743517
0.00738786
0.00734043
0.00729595
0.00725292
0.00721149
0.00717313
0.00713348
0.00708813
0.00703478
0.0069786
0.00693079
0.00689023
0.00683854
0.00677035
0.00669509
0.00662707
0.00657031
0.00651732
0.00646097
0.00640405
0.0063437
0.0062761
0.00620007
0.00612969
0.00606779
0.00600838
0.005945
0.00587903
0.00580922
0.00573855
0.00567288
0.00560819
0.00553953
0.0054663
0.00539667
0.00532947
0.00526082
0.00519475
0.00513551
0.00507563
0.00501004
0.0049396
0.0048591
0.00478909
0.00472327
0.00467754
0.0046153
0.0045575
0.00446309
0.00440558
0.00435587
0.00428937
0.00420694
0.00411234
0.00407187
0.00395901
0.00393604
0.00391152
0.00378993
0.00381211
0.00400782
0.00381989
0.00409925
0.00468682
0.00478129
0.00527067
0.00586586
0.00631467
0.00651943
0.00649019
0.00717546
0.00600721
0.0047614
0.00439929
0.00399353
0.0037274
0.00361624
0.00370276
0.00392499
0.00398175
0.00430829
0.00471202
0.00453029
0.00455454
0.00435251
0.00339066
0.00272093
0.00246415
0.00248965
0.00224959
0.00219812
0.0021946
0.00224997
0.00229562
0.00239
0.00244095
0.00252689
0.00276273
0.00322359
0.00438813
0.00617303
0.00955047
0.0142717
0.0206773
0.021987
0.0228672
0.0291468
0.027714
0.022725
0.0308545
0.0174122
0.00753689
0.00638095
0.00562205
0.00515575
0.00478445
0.00450937
0.00421852
0.00393
0.00371059
0.0035925
0.00351939
0.00346812
0.0034528
0.00346049
0.00351919
0.00360572
0.00366996
0.00370865
0.00376329
0.00383668
0.00389306
0.00392534
0.00397254
0.00405457
0.00415415
0.0042312
0.00429192
0.00433501
0.00437182
0.00441087
0.00446009
0.00454354
0.00464534
0.00472261
0.00473201
0.00470156
0.00466044
0.00464765
0.00467306
0.00470968
0.00475469
0.00478189
0.00481325
0.00486181
0.00490204
0.00493207
0.00497347
0.00503794
0.00511746
0.0051962
0.00526177
0.00530782
0.00533602
0.00535306
0.00536591
0.00538079
0.005402
0.00542997
0.00546034
0.00548714
0.00550826
0.00552812
0.00555405
0.00558588
0.00562075
0.00564457
0.00566225
0.00567376
0.00569538
0.0057192
0.00573414
0.00575042
0.00581317
0.00590031
0.00600648
0.00628579
0.00655997
0.0067551
0.00565122
0.00313071
0.210504
0.271801
0.300975
0.271953
0.213739
0.159881
0.126341
0.110505
0.106296
0.109936
0.125038
0.146761
0.189341
0.249762
0.334268
0.454071
0.601641
0.758097
0.923256
1.0887
1.22871
1.3194
1.40035
1.47798
1.55287
1.64822
1.81943
1.98047
1.95973
1.94451
1.96367
1.96801
1.94111
1.88712
1.79308
1.64653
1.46253
1.28171
1.10719
0.860515
0.646802
0.502647
0.428049
0.402917
0.383919
0.347317
0.308425
0.282533
0.279326
0.283452
0.279665
0.266728
0.242402
0.21784
0.198661
0.186772
0.183353
0.186206
0.191354
0.194967
0.19696
0.201093
0.21285
0.231595
0.247431
0.252115
0.246985
0.232448
0.211964
0.194987
0.190403
0.196971
0.211781
0.232335
0.258426
0.28997
0.323153
0.35634
0.410221
0.473588
0.570737
0.685374
0.777773
0.884501
0.970839
1.02538
1.10589
1.20235
1.3077
1.34886
1.30619
1.13499
0.969886
0.790408
0.665077
0.56544
0.499141
0.469165
0.461818
0.458921
0.45268
0.437391
0.423311
0.401141
0.378955
0.360452
0.33844
0.321444
0.312086
0.301413
0.27841
0.249419
0.216719
0.185008
0.154193
0.125729
0.0999726
0.0818472
0.0725256
0.0681456
0.0652322
0.0639037
0.0643513
0.0667217
0.0684728
0.0711368
0.064107
0.0491148
0.0377744
0.028974
0.0233196
0.0196009
0.0171689
0.0157653
0.0151024
0.0148991
0.0148078
0.0147801
0.0148186
0.0147939
0.0148239
0.0149061
0.0149477
0.0149999
0.0150993
0.0152014
0.0152815
0.0153378
0.0153769
0.0154714
0.0156141
0.0157526
0.0158492
0.0159115
0.0160147
0.0161686
0.0163431
0.0164869
0.016585
0.0166301
0.0166469
0.0166861
0.0167542
0.0168278
0.0168666
0.0168536
0.0167751
0.0166794
0.0166282
0.0165813
0.0164747
0.0162749
0.0160111
0.0157505
0.0155178
0.0153128
0.0150901
0.0147951
0.0144216
0.0139867
0.0135296
0.0130804
0.0126629
0.0122923
0.0119472
0.0115807
0.0111688
0.0107226
0.0102893
0.00990612
0.00956958
0.00925384
0.00893379
0.00859266
0.00823999
0.00791145
0.00762828
0.00737987
0.00713633
0.00686983
0.00658321
0.00630615
0.00606013
0.0058385
0.0056185
0.00539224
0.00516911
0.00496105
0.00477644
0.00460757
0.00443464
0.00425096
0.00407146
0.00391101
0.00376574
0.0036326
0.0035125
0.00339564
0.00327387
0.0031487
0.00302796
0.00292169
0.00283121
0.0027527
0.00267768
0.00259842
0.00251749
0.00243764
0.00236477
0.00230262
0.00224839
0.00219835
0.00214941
0.0021015
0.00205676
0.00201743
0.00198128
0.00194599
0.00191547
0.00189175
0.00187211
0.00185336
0.00183352
0.00181436
0.00179851
0.00178815
0.00178317
0.00178254
0.00178297
0.00178096
0.00177805
0.00177646
0.00177703
0.00178187
0.00179093
0.0017999
0.00180764
0.00181459
0.00182155
0.00183091
0.00184083
0.00185037
0.0018604
0.00187124
0.0018841
0.00190001
0.00191517
0.00192571
0.00193505
0.00194542
0.00195723
0.00196977
0.00198315
0.00199834
0.0020146
0.00202978
0.00204316
0.00205437
0.00206346
0.00207368
0.00208716
0.0021039
0.00212146
0.00213605
0.00214703
0.00215631
0.0021665
0.00217834
0.00219084
0.0022041
0.0022172
0.00222876
0.00223823
0.00224654
0.00225442
0.00226198
0.00226981
0.00227806
0.0022865
0.00229264
0.00229439
0.00229468
0.00229624
0.00229812
0.00229761
0.00229273
0.00228513
0.00227821
0.00227188
0.002263
0.00225055
0.00223695
0.0022244
0.00221276
0.00219934
0.0021819
0.00216255
0.00214394
0.00212679
0.00211071
0.00209451
0.00207767
0.00206075
0.0020448
0.00203007
0.00201659
0.0020049
0.00199473
0.00198489
0.00197474
0.00196496
0.00195705
0.00195176
0.00194812
0.00194387
0.00193815
0.00193082
0.00192333
0.00191644
0.0019099
0.00190386
0.00189825
0.00189245
0.00188595
0.00187813
0.00186838
0.00185804
0.00184818
0.00183919
0.00183123
0.00182412
0.00181704
0.0018089
0.00179985
0.00179132
0.00178407
0.0017781
0.00177263
0.00176564
0.00175776
0.00175043
0.00174387
0.00173765
0.00173135
0.00172514
0.001719
0.0017129
0.00170649
0.00169942
0.00169271
0.00168713
0.00168119
0.00167339
0.00166402
0.00165531
0.00164822
0.00164173
0.00163447
0.00162677
0.00161899
0.00161113
0.00160281
0.00159491
0.00158778
0.00158073
0.00157244
0.00156372
0.00155517
0.00154716
0.00153933
0.00153063
0.00152156
0.00151296
0.00150526
0.00149751
0.00148902
0.00148037
0.00147277
0.00146562
0.0014584
0.001451
0.00144169
0.00143395
0.0014264
0.00141927
0.0014102
0.00140376
0.00139143
0.00138868
0.00139012
0.00138801
0.00138308
0.00137897
0.00137229
0.00135961
0.00138583
0.00149707
0.00154205
0.00167229
0.00185556
0.00207088
0.00198019
0.00180447
0.00176619
0.00168787
0.00161995
0.00157988
0.00153223
0.00148425
0.0015074
0.00147609
0.00144565
0.00149278
0.00161973
0.00169384
0.00184304
0.00202466
0.00220575
0.00241136
0.0024305
0.00230585
0.00195749
0.00170325
0.00155246
0.00144177
0.00135294
0.00130217
0.00128416
0.00132309
0.00135678
0.00141259
0.00146788
0.00168835
0.00187629
0.00209729
0.00272683
0.00397155
0.00621186
0.00902218
0.0132171
0.0120077
0.00951727
0.00919416
0.00874322
0.00757427
0.0080514
0.00553126
0.00334847
0.00288111
0.00234305
0.00209432
0.00198554
0.00190672
0.00184425
0.00180179
0.00175879
0.00171413
0.00167171
0.0016329
0.00159911
0.00157001
0.00154567
0.00152648
0.00151207
0.00150259
0.0014959
0.00148993
0.00148479
0.00148214
0.00148147
0.00148049
0.00147984
0.00148147
0.00148519
0.00148947
0.00149285
0.00149608
0.00149944
0.00150224
0.0015054
0.00150993
0.00151624
0.001523
0.00152843
0.00153083
0.00153193
0.00153268
0.00153448
0.0015376
0.00154128
0.00154518
0.0015489
0.00155301
0.00155774
0.00156252
0.00156735
0.0015727
0.00157887
0.00158562
0.00159233
0.00159834
0.00160339
0.00160743
0.00161069
0.0016135
0.00161626
0.00161936
0.00162292
0.0016267
0.00163028
0.00163349
0.00163658
0.00164001
0.00164384
0.00164714
0.00164996
0.0016522
0.00165484
0.00165721
0.00166034
0.00166227
0.00166713
0.00169159
0.00173112
0.00178781
0.00192524
0.00208124
0.00227609
0.00207436
0.00148409
0.123722
0.159332
0.1765
0.161368
0.130963
0.0986589
0.0781413
0.0694773
0.070658
0.0812516
0.0993022
0.120749
0.156901
0.215405
0.302553
0.414498
0.534843
0.640597
0.761027
0.889045
1.00832
1.09569
1.13831
1.16003
1.1883
1.23895
1.32034
1.33818
1.28945
1.28138
1.33833
1.39909
1.42803
1.39089
1.30131
1.18779
1.06658
0.952013
0.763112
0.557299
0.404603
0.318146
0.274295
0.254541
0.238418
0.217052
0.196707
0.182755
0.179958
0.18197
0.180798
0.172994
0.160097
0.146326
0.133775
0.123555
0.117457
0.115331
0.114658
0.113503
0.112934
0.115442
0.12371
0.136957
0.14917
0.15576
0.155231
0.147292
0.135358
0.124173
0.118448
0.118661
0.124052
0.133785
0.148001
0.167422
0.191771
0.218915
0.250861
0.29132
0.343016
0.415766
0.487313
0.573257
0.657763
0.716703
0.779442
0.861701
0.933951
0.976639
1.00595
1.01651
0.98462
0.910575
0.789796
0.658165
0.521865
0.427769
0.363653
0.324504
0.302921
0.289532
0.27494
0.257898
0.239674
0.223175
0.207931
0.195885
0.189955
0.190589
0.190545
0.188494
0.182409
0.1697
0.153298
0.134482
0.11548
0.0966222
0.078803
0.0624501
0.0499472
0.0422424
0.0377354
0.0350941
0.0343676
0.0347794
0.0363591
0.0374275
0.0387525
0.0345869
0.0263112
0.0201881
0.0153675
0.0122378
0.0102513
0.00908684
0.00821375
0.00749206
0.00700513
0.00664935
0.00645301
0.00636429
0.00629856
0.00626612
0.00626799
0.00626312
0.00626683
0.0062852
0.00631893
0.00636756
0.00641863
0.00646314
0.00650691
0.00655533
0.00660958
0.00666534
0.0067289
0.00679693
0.00685286
0.00688837
0.0069132
0.0069357
0.00695884
0.00698356
0.00700381
0.00701088
0.0069979
0.00697119
0.00694502
0.00692559
0.00689579
0.00683841
0.00675927
0.00667328
0.0065872
0.0065061
0.00642636
0.00633443
0.00622546
0.00609983
0.00595876
0.00581265
0.00567369
0.00554756
0.00543523
0.00532709
0.00520689
0.00507171
0.00493232
0.0048028
0.00469003
0.00458892
0.00449128
0.00438919
0.00427821
0.00416454
0.00406047
0.00397176
0.00389147
0.00380965
0.00372188
0.00363285
0.00355015
0.00347342
0.00339547
0.00331255
0.00323011
0.00315557
0.00309083
0.00303011
0.00296498
0.00289282
0.00281973
0.00275105
0.00268496
0.00262369
0.00257002
0.00251856
0.00246388
0.00240497
0.00234558
0.00229078
0.00224167
0.00219756
0.00215648
0.00211493
0.00207266
0.00202978
0.00198586
0.00194421
0.00190822
0.0018769
0.00184699
0.00181639
0.00178653
0.00175952
0.00173366
0.0017076
0.0016847
0.00166734
0.00165144
0.00163429
0.00161648
0.00159874
0.00158362
0.00157364
0.00156796
0.00156386
0.00155878
0.00155208
0.00154504
0.00153931
0.00153676
0.00153687
0.00153867
0.00154031
0.00154108
0.0015415
0.00154323
0.00154823
0.00155348
0.00155697
0.00156054
0.00156347
0.00156628
0.00157247
0.00158168
0.0015901
0.00159645
0.0016014
0.00160567
0.00161077
0.00161872
0.00162786
0.00163602
0.0016436
0.00165153
0.00165977
0.00166665
0.00167256
0.00167964
0.00168844
0.00169831
0.00170784
0.00171603
0.00172182
0.00172703
0.00173519
0.00174417
0.00175169
0.00175928
0.00176643
0.00177134
0.00177642
0.00178313
0.00178895
0.00179348
0.00179761
0.00180145
0.00180464
0.00180711
0.00180894
0.00180973
0.00180941
0.00180826
0.00180655
0.00180376
0.00180005
0.00179572
0.0017902
0.0017835
0.00177603
0.00176793
0.00175909
0.00174923
0.00173834
0.00172676
0.00171482
0.00170256
0.00168971
0.0016761
0.00166212
0.00164808
0.00163397
0.00161968
0.00160528
0.00159101
0.00157699
0.00156306
0.0015491
0.00153533
0.00152228
0.00151021
0.00149863
0.00148679
0.00147505
0.00146399
0.00145369
0.00144414
0.00143516
0.00142668
0.00141861
0.00141078
0.00140299
0.00139525
0.00138801
0.00138139
0.00137514
0.00136922
0.00136376
0.00135894
0.00135469
0.00135046
0.00134602
0.00134181
0.00133817
0.00133515
0.00133238
0.00132954
0.00132684
0.00132442
0.00132232
0.00132039
0.00131839
0.0013164
0.00131452
0.00131275
0.00131111
0.00130954
0.00130781
0.0013061
0.00130477
0.00130345
0.00130181
0.00129997
0.00129802
0.00129622
0.00129457
0.00129297
0.00129123
0.00128946
0.0012876
0.00128581
0.00128406
0.00128238
0.00128052
0.00127831
0.00127617
0.00127415
0.00127226
0.00126962
0.00126695
0.00126436
0.00126232
0.00125989
0.00125729
0.00125421
0.00125164
0.00124888
0.00124692
0.00124541
0.00124289
0.00123919
0.00123676
0.00123345
0.00123398
0.00124237
0.00124586
0.00126129
0.00125359
0.00124463
0.00124364
0.00127204
0.00138086
0.00144615
0.0015747
0.0017454
0.00197651
0.00185067
0.00162729
0.00157128
0.00146252
0.00136693
0.00129073
0.00126228
0.0012508
0.00125574
0.00127339
0.00129649
0.00136832
0.00153656
0.00167685
0.0018952
0.00210079
0.0023847
0.00242494
0.00235464
0.00209135
0.0017962
0.00158534
0.00147399
0.00137656
0.0013218
0.0012901
0.00127605
0.00130762
0.00134125
0.00140706
0.00152823
0.001822
0.00220364
0.00291932
0.00418311
0.00583475
0.00753623
0.0108262
0.0143949
0.0127947
0.00965757
0.00867857
0.00782398
0.00649117
0.00614708
0.00439509
0.00308367
0.00251269
0.002072
0.00186517
0.00174917
0.00168929
0.00164871
0.00163159
0.00162576
0.00161879
0.00160518
0.00158392
0.00156391
0.00154404
0.00152348
0.00150269
0.00148314
0.00146569
0.00145052
0.00143713
0.00142561
0.0014155
0.00140603
0.00139765
0.00139095
0.00138557
0.00138085
0.00137693
0.00137408
0.00137189
0.00136997
0.00136832
0.00136715
0.00136609
0.00136528
0.0013651
0.00136541
0.00136592
0.00136628
0.00136644
0.00136669
0.00136718
0.00136801
0.0013689
0.00136976
0.00137069
0.00137174
0.00137294
0.00137417
0.00137535
0.00137655
0.00137782
0.00137909
0.00138039
0.00138169
0.00138299
0.00138427
0.00138553
0.00138672
0.00138782
0.00138883
0.00138979
0.00139074
0.00139171
0.00139268
0.00139361
0.00139448
0.00139536
0.00139617
0.00139701
0.00139755
0.00139849
0.00139894
0.0013997
0.00140009
0.00140136
0.00140204
0.00140576
0.00142662
0.00146156
0.00151298
0.00163602
0.00177941
0.00196514
0.00182643
0.00137197
0.0754643
0.096225
0.107616
0.102543
0.0861191
0.0666428
0.054102
0.0502283
0.0544145
0.0657632
0.0797013
0.0956803
0.12239
0.166366
0.231171
0.312264
0.401005
0.484549
0.55673
0.617642
0.670068
0.708356
0.72987
0.741426
0.754211
0.787643
0.834079
0.84433
0.830334
0.838307
0.879197
0.925999
0.954125
0.939477
0.892012
0.834086
0.752196
0.627771
0.47405
0.334288
0.250135
0.200422
0.173861
0.159603
0.14926
0.138833
0.129255
0.122374
0.119707
0.119877
0.119307
0.116467
0.11102
0.103477
0.0945044
0.0862445
0.0801068
0.0765219
0.0742847
0.0725541
0.0719257
0.0734076
0.0781262
0.0857785
0.0932808
0.0981726
0.0994965
0.0969973
0.091961
0.0862376
0.0819208
0.0803616
0.0818847
0.0869555
0.0957425
0.107575
0.120912
0.13609
0.152771
0.174432
0.202765
0.237495
0.275155
0.317051
0.362095
0.402192
0.442891
0.504063
0.577245
0.623952
0.66347
0.681934
0.668958
0.634404
0.588497
0.542339
0.489023
0.422274
0.352764
0.289187
0.244421
0.213166
0.190923
0.175476
0.163025
0.152014
0.141968
0.133674
0.12805
0.125268
0.123838
0.12455
0.127325
0.128889
0.128089
0.123784
0.115058
0.103988
0.0912191
0.0783662
0.0656288
0.0536449
0.0430144
0.0351202
0.0304321
0.0277381
0.0263485
0.0265651
0.0277953
0.0303006
0.0323286
0.034141
0.0312959
0.0246205
0.0190442
0.015161
0.0119167
0.00966536
0.00804632
0.00679724
0.00585309
0.00524205
0.00484929
0.00461849
0.00448138
0.00437494
0.00430133
0.00428077
0.00428135
0.00429037
0.00430374
0.00432233
0.00435056
0.00439011
0.00442457
0.00445074
0.00447551
0.00451144
0.00454994
0.00458371
0.00461115
0.00462613
0.00463274
0.00464183
0.00465757
0.00467232
0.00468038
0.00467774
0.00466457
0.00465272
0.00464645
0.00463788
0.00462005
0.00459081
0.00455528
0.00452017
0.00449143
0.00446794
0.00444179
0.00440313
0.00435168
0.00429685
0.00424339
0.00419238
0.00414958
0.00411504
0.00407612
0.00402622
0.0039678
0.00390685
0.00385252
0.00380737
0.0037659
0.00372274
0.00367229
0.00361236
0.00355139
0.00349847
0.00345222
0.00341049
0.00336917
0.00332087
0.00326652
0.00321072
0.00315417
0.0030964
0.00304229
0.00299539
0.00295103
0.00290249
0.00284648