/*--------------------------------*- C++ -*----------------------------------*\
| =========                 |                                                 |
| \\      /  F ield         | OpenFOAM: The Open Source CFD Toolbox           |
|  \\    /   O peration     | Version:  v2006                                 |
|   \\  /    A nd           | Website:  www.openfoam.com                      |
|    \\/     M anipulation  |                                                 |
\*---------------------------------------------------------------------------*/
FoamFile
{
    version     2.0;
    format      ascii;
    class       volScalarField;
    location    "9.3";
    object      p;
}
// * * * * * * * * * * * * * * * * * * * * * * * * * * * * * * * * * * * * * //

dimensions      [1 -1 -2 0 0 0 0];


internalField   nonuniform List<scalar> 
33000
(
7956.97
7955.98
7955.05
7954.16
7953.78
7953.66
7953.63
7953.45
7953.12
7952.65
7952.03
7951.41
7950.88
7950.53
7950.3
7950.15
7950.04
7949.97
7950.05
7950.44
7951.22
7952.36
7953.78
7955.48
7957.23
7958.81
7960.32
7961.9
7963.46
7965.04
7966.7
7968.53
7970.54
7972.73
7975.15
7977.63
7980.06
7982.39
7984.66
7986.88
7989.11
7991.33
7993.55
7995.76
7997.97
8000.18
8002.41
8004.6
8006.77
8008.89
8011.01
8013.11
8015.19
8017.23
8019.2
8021.11
8022.94
8024.69
8026.37
8028
8029.56
8031.06
8032.49
8033.87
8035.17
8036.42
8037.59
8038.69
8039.72
8040.67
8041.52
8042.28
8042.98
8043.65
8044.32
8044.97
8045.72
8046.15
8044.38
8041.45
8044.02
8042.61
8042.32
8041.61
8040.68
8039.17
8038.34
8037.06
8035.78
8034.13
8032.6
8030.81
8029.02
8027.22
8025.57
8023.78
8022.63
8020.9
8021.58
8018.77
8011.71
8007.69
8002.86
7997.47
7992.19
7986.4
7979.81
7973.21
7966.24
7959.16
7951.67
7944.06
7936.26
7928.24
7920.5
7912.23
7906.15
7896.51
7882.88
7872.2
7860.5
7848.26
7836.16
7823.38
7809.98
7796.53
7782.89
7769.07
7755.16
7741.11
7726.97
7712.84
7698.75
7684.7
7670.74
7656.88
7643.18
7629.64
7616.3
7603.15
7590.25
7577.61
7565.26
7553.22
7541.49
7530.06
7518.97
7508.23
7497.88
7487.89
7478.25
7468.98
7460.07
7451.54
7443.37
7435.57
7428.1
7420.97
7414.16
7407.67
7401.48
7395.57
7389.93
7384.55
7379.4
7374.48
7369.76
7365.23
7360.88
7356.73
7352.81
7349.13
7345.69
7342.51
7339.6
7336.97
7334.65
7332.64
7330.94
7329.55
7328.47
7327.71
7327.26
7327.12
7327.32
7327.83
7328.66
7329.8
7331.24
7332.98
7335.01
7337.34
7339.95
7342.84
7345.98
7349.38
7353.02
7356.9
7361.02
7365.35
7369.91
7374.65
7379.58
7384.68
7389.95
7395.37
7400.95
7406.66
7412.49
7418.43
7424.48
7430.64
7436.88
7443.19
7449.56
7455.99
7462.46
7468.97
7475.53
7482.12
7488.72
7495.32
7501.93
7508.52
7515.11
7521.68
7528.24
7534.77
7541.27
7547.73
7554.13
7560.5
7566.82
7573.09
7579.31
7585.47
7591.56
7597.59
7603.54
7609.43
7615.25
7620.99
7626.67
7632.27
7637.8
7643.24
7648.6
7653.88
7659.08
7664.2
7669.25
7674.21
7679.08
7683.86
7688.56
7693.18
7697.72
7702.17
7706.54
7710.82
7715.01
7719.12
7723.15
7727.09
7730.94
7734.7
7738.37
7741.96
7745.47
7748.89
7752.23
7755.48
7758.64
7761.72
7764.71
7767.62
7770.45
7773.2
7775.87
7778.45
7780.95
7783.37
7785.72
7787.98
7790.17
7792.29
7794.33
7796.3
7798.2
7800.03
7801.79
7803.49
7805.12
7806.7
7808.21
7809.67
7811.08
7812.44
7813.74
7815.01
7816.23
7817.41
7818.56
7819.67
7820.75
7821.8
7822.83
7823.83
7824.8
7825.75
7826.66
7827.55
7828.4
7829.21
7830
7830.74
7831.45
7832.13
7832.76
7833.36
7833.92
7834.44
7834.92
7835.36
7835.76
7836.12
7836.44
7836.72
7836.96
7837.15
7837.31
7837.43
7837.5
7837.54
7837.53
7837.49
7837.41
7837.29
7837.14
7836.95
7836.72
7836.46
7836.16
7835.83
7835.47
7835.08
7834.66
7834.21
7833.74
7833.23
7832.7
7832.15
7831.58
7830.99
7830.37
7829.74
7829.09
7828.42
7827.74
7827.04
7826.34
7825.62
7824.89
7824.16
7823.41
7822.66
7821.9
7821.14
7820.38
7819.61
7818.84
7818.08
7817.31
7816.54
7815.78
7815.01
7814.25
7813.49
7812.74
7811.99
7811.24
7810.5
7809.76
7809.03
7808.3
7807.58
7806.86
7806.15
7805.44
7804.74
7804.04
7803.34
7802.65
7801.97
7801.29
7800.62
7799.94
7799.28
7798.62
7797.96
7797.3
7796.65
7796
7795.35
7794.71
7794.06
7793.42
7792.78
7792.14
7791.5
7790.86
7790.22
7789.58
7788.93
7788.29
7787.65
7787
7786.35
7785.71
7785.05
7784.4
7783.74
7783.07
7782.41
7781.74
7781.07
7780.39
7779.7
7779.02
7778.33
7777.65
7776.96
7776.26
7775.56
7774.85
7774.13
7773.4
7772.68
7771.95
7771.21
7770.48
7769.74
7769
7768.27
7767.53
7766.79
7766.05
7765.32
7764.59
7763.85
7763.12
7762.39
7761.67
7760.95
7760.23
7759.52
7758.81
7758.11
7757.42
7756.73
7756.05
7755.39
7754.71
7754.08
7753.47
7752.84
7752.26
7751.71
7750.91
7750.53
7750.17
7749.75
7749.31
7748.86
7748.39
7747.91
7747.43
7746.95
7746.46
7745.97
7745.48
7744.99
7744.5
7744.01
7743.53
7743.04
7742.55
7742.06
7741.58
7741.09
7740.61
7740.12
7739.63
7739.14
7738.64
7738.15
7737.65
7737.15
7736.64
7736.12
7735.6
7735.07
7734.54
7733.99
7733.44
7732.87
7732.29
7731.7
7731.1
7730.48
7729.85
7729.2
7728.54
7727.85
7727.15
7726.43
7725.69
7724.92
7724.14
7723.33
7722.5
7721.65
7720.77
7719.87
7718.94
7717.99
7717.01
7716
7714.97
7713.91
7712.82
7711.7
7710.55
7709.38
7708.17
7706.94
7705.68
7704.38
7703.06
7701.71
7700.33
7698.92
7697.47
7696
7694.5
7692.96
7691.4
7689.81
7688.17
7686.31
7759.77
7759.34
7758.09
7757.06
7756.57
7756.34
7756.22
7756.01
7755.6
7755.1
7754.52
7754.05
7753.75
7753.57
7753.45
7753.31
7753.09
7752.84
7752.73
7753.02
7753.9
7755.26
7756.99
7759.01
7761
7762.73
7764.27
7765.64
7767.01
7768.44
7770
7771.78
7773.86
7776.14
7778.61
7781.23
7783.74
7786.11
7788.44
7790.72
7792.95
7795.17
7797.38
7799.6
7801.83
7804.04
7806.27
7808.47
7810.65
7812.79
7814.91
7817.01
7819.07
7821.11
7823.09
7825
7826.84
7828.6
7830.32
7831.97
7833.58
7835.11
7836.55
7837.89
7839.18
7840.4
7841.54
7842.63
7843.65
7844.58
7845.42
7846.16
7846.81
7847.39
7847.87
7848.27
7848.59
7848.75
7848.97
7849.7
7849.92
7847.36
7843.28
7846.01
7844.46
7843.7
7842.83
7841.53
7840.03
7837.76
7836.61
7834.59
7832.83
7830.85
7828.94
7826.78
7824.78
7822.76
7820.44
7818.38
7815.44
7815.32
7810.75
7801.77
7795.9
7789.52
7783.41
7777.17
7770.88
7763.99
7756.22
7748.3
7740.18
7731.89
7723.6
7715.03
7706.25
7697.08
7686.9
7679.42
7668.07
7652.51
7639.96
7626.96
7613.84
7600.99
7587.48
7573.37
7559.29
7545.15
7530.98
7516.86
7502.74
7488.62
7474.6
7460.69
7446.96
7433.4
7420.03
7406.88
7393.95
7381.29
7368.92
7356.84
7345.07
7333.62
7322.51
7311.76
7301.39
7291.36
7281.71
7272.42
7263.51
7254.97
7246.78
7238.95
7231.47
7224.33
7217.51
7211.02
7204.82
7198.91
7193.26
7187.87
7182.71
7177.78
7173.05
7168.52
7164.17
7160.02
7156.09
7152.4
7148.95
7145.77
7142.86
7140.24
7137.92
7135.9
7134.19
7132.8
7131.72
7130.96
7130.52
7130.39
7130.59
7131.11
7131.95
7133.1
7134.55
7136.3
7138.35
7140.68
7143.3
7146.19
7149.36
7152.77
7156.43
7160.33
7164.46
7168.81
7173.37
7178.12
7183.07
7188.19
7193.47
7198.92
7204.5
7210.22
7216.07
7222.03
7228.1
7234.27
7240.52
7246.84
7253.23
7259.67
7266.15
7272.68
7279.25
7285.84
7292.45
7299.06
7305.68
7312.29
7318.89
7325.47
7332.03
7338.57
7345.07
7351.53
7357.96
7364.33
7370.66
7376.94
7383.16
7389.32
7395.42
7401.44
7407.4
7413.3
7419.12
7424.88
7430.56
7436.16
7441.68
7447.13
7452.49
7457.77
7462.98
7468.1
7473.15
7478.11
7482.98
7487.77
7492.48
7497.1
7501.64
7506.09
7510.45
7514.73
7518.93
7523.04
7527.07
7531
7534.85
7538.62
7542.29
7545.88
7549.39
7552.81
7556.15
7559.4
7562.56
7565.64
7568.64
7571.55
7574.37
7577.12
7579.78
7582.36
7584.86
7587.29
7589.63
7591.89
7594.08
7596.19
7598.23
7600.2
7602.09
7603.92
7605.68
7607.38
7609.01
7610.58
7612.1
7613.56
7614.96
7616.32
7617.62
7618.88
7620.1
7621.28
7622.42
7623.53
7624.61
7625.66
7626.69
7627.69
7628.66
7629.6
7630.52
7631.4
7632.25
7633.07
7633.85
7634.59
7635.3
7635.98
7636.61
7637.21
7637.77
7638.29
7638.77
7639.21
7639.61
7639.97
7640.29
7640.57
7640.81
7641
7641.16
7641.28
7641.35
7641.39
7641.39
7641.34
7641.26
7641.14
7640.99
7640.8
7640.57
7640.31
7640.01
7639.68
7639.32
7638.93
7638.51
7638.06
7637.58
7637.08
7636.55
7636
7635.43
7634.83
7634.21
7633.58
7632.93
7632.26
7631.58
7630.88
7630.18
7629.46
7628.73
7627.99
7627.24
7626.49
7625.74
7624.97
7624.21
7623.44
7622.67
7621.9
7621.13
7620.37
7619.6
7618.84
7618.07
7617.31
7616.56
7615.81
7615.06
7614.32
7613.58
7612.85
7612.12
7611.4
7610.68
7609.96
7609.26
7608.55
7607.85
7607.16
7606.47
7605.79
7605.11
7604.43
7603.76
7603.1
7602.43
7601.77
7601.12
7600.47
7599.82
7599.17
7598.52
7597.88
7597.24
7596.59
7595.95
7595.31
7594.67
7594.03
7593.39
7592.75
7592.11
7591.46
7590.82
7590.17
7589.52
7588.87
7588.21
7587.55
7586.89
7586.22
7585.55
7584.87
7584.2
7583.52
7582.85
7582.16
7581.49
7580.78
7580.09
7579.37
7578.66
7577.93
7577.21
7576.48
7575.75
7575.02
7574.28
7573.54
7572.8
7572.06
7571.33
7570.6
7569.85
7569.11
7568.37
7567.64
7566.91
7566.18
7565.45
7564.73
7564.02
7563.31
7562.6
7561.89
7561.2
7560.48
7559.83
7559.17
7558.53
7557.86
7557.25
7556.35
7555.9
7555.5
7555.02
7554.55
7554.09
7553.63
7553.16
7552.69
7552.21
7551.73
7551.24
7550.75
7550.26
7549.77
7549.28
7548.79
7548.3
7547.81
7547.32
7546.84
7546.35
7545.86
7545.38
7544.89
7544.41
7543.92
7543.43
7542.94
7542.45
7541.96
7541.46
7540.96
7540.45
7539.94
7539.42
7538.9
7538.36
7537.82
7537.26
7536.7
7536.13
7535.54
7534.94
7534.32
7533.69
7533.04
7532.38
7531.7
7531
7530.28
7529.54
7528.78
7528
7527.19
7526.36
7525.51
7524.63
7523.73
7522.81
7521.85
7520.87
7519.87
7518.83
7517.77
7516.68
7515.56
7514.42
7513.24
7512.04
7510.81
7509.54
7508.25
7506.93
7505.57
7504.19
7502.78
7501.34
7499.86
7498.36
7496.83
7495.26
7493.67
7492.03
7490.17
7562.57
7562.39
7561.15
7560.05
7559.38
7558.9
7558.53
7558.17
7557.68
7557.14
7556.62
7556.35
7556.18
7556.11
7556.03
7555.88
7555.64
7555.37
7555.24
7555.62
7556.68
7558.16
7560.06
7562.3
7564.37
7566.24
7567.79
7569.08
7570.31
7571.54
7572.94
7574.65
7576.74
7579.16
7581.75
7584.45
7587.12
7589.67
7592.14
7594.52
7596.77
7598.99
7601.21
7603.44
7605.69
7607.94
7610.17
7612.38
7614.58
7616.75
7618.88
7620.99
7623.06
7625.1
7627.09
7629.01
7630.88
7632.69
7634.45
7636.16
7637.8
7639.34
7640.78
7642.12
7643.38
7644.57
7645.71
7646.77
7647.78
7648.71
7649.54
7650.29
7650.93
7651.48
7651.95
7652.32
7652.58
7652.73
7652.6
7652.3
7652.06
7651.94
7652.51
7652.78
7649.87
7644.22
7646.46
7645.78
7644.32
7642.49
7640.99
7639.11
7636.35
7634.82
7632.46
7630.28
7628.04
7625.52
7623
7619.99
7616.4
7612.86
7609.4
7605.62
7604.67
7599.03
7588.84
7582.02
7574.51
7567.49
7560.1
7552.94
7545.13
7536.49
7527.73
7518.68
7509.47
7499.75
7489.32
7478.63
7467.87
7456.53
7448.01
7435.46
7418.66
7405.11
7391.18
7377.4
7363.88
7349.83
7335.35
7321.01
7306.76
7292.57
7278.51
7264.58
7250.8
7237.15
7223.72
7210.51
7197.54
7184.82
7172.38
7160.24
7148.41
7136.91
7125.76
7114.98
7104.55
7094.49
7084.79
7075.47
7066.53
7057.96
7049.75
7041.89
7034.38
7027.21
7020.38
7013.86
7007.64
7001.71
6996.04
6990.63
6985.46
6980.5
6975.76
6971.22
6966.86
6962.72
6958.78
6955.08
6951.64
6948.45
6945.54
6942.92
6940.6
6938.58
6936.87
6935.48
6934.4
6933.65
6933.22
6933.11
6933.32
6933.85
6934.7
6935.87
6937.35
6939.13
6941.2
6943.55
6946.19
6949.11
6952.29
6955.74
6959.43
6963.36
6967.52
6971.9
6976.48
6981.27
6986.25
6991.4
6996.72
7002.19
7007.8
7013.55
7019.43
7025.43
7031.53
7037.71
7043.99
7050.33
7056.74
7063.21
7069.73
7076.29
7082.88
7089.48
7096.11
7102.74
7109.38
7116.02
7122.63
7129.23
7135.81
7142.35
7148.87
7155.35
7161.79
7168.18
7174.52
7180.82
7187.05
7193.21
7199.32
7205.35
7211.32
7217.23
7223.07
7228.83
7234.52
7240.12
7245.65
7251.1
7256.47
7261.76
7266.98
7272.11
7277.15
7282.11
7286.98
7291.78
7296.49
7301.12
7305.66
7310.11
7314.48
7318.76
7322.96
7327.07
7331.1
7335.04
7338.89
7342.65
7346.33
7349.93
7353.43
7356.85
7360.19
7363.43
7366.6
7369.68
7372.67
7375.58
7378.41
7381.15
7383.81
7386.39
7388.89
7391.31
7393.65
7395.91
7398.09
7400.2
7402.23
7404.2
7406.09
7407.91
7409.67
7411.37
7412.99
7414.56
7416.07
7417.52
7418.93
7420.28
7421.58
7422.83
7424.05
7425.22
7426.36
7427.47
7428.54
7429.59
7430.61
7431.61
7432.58
7433.52
7434.43
7435.31
7436.16
7436.97
7437.75
7438.5
7439.21
7439.88
7440.51
7441.11
7441.67
7442.19
7442.67
7443.11
7443.51
7443.87
7444.19
7444.47
7444.71
7444.9
7445.06
7445.18
7445.26
7445.29
7445.29
7445.25
7445.17
7445.05
7444.89
7444.7
7444.47
7444.21
7443.92
7443.59
7443.22
7442.83
7442.41
7441.96
7441.48
7440.98
7440.45
7439.89
7439.32
7438.72
7438.1
7437.47
7436.81
7436.14
7435.46
7434.76
7434.05
7433.33
7432.6
7431.86
7431.11
7430.36
7429.6
7428.84
7428.07
7427.3
7426.53
7425.76
7424.99
7424.22
7423.45
7422.68
7421.92
7421.16
7420.4
7419.65
7418.9
7418.15
7417.41
7416.68
7415.95
7415.23
7414.51
7413.79
7413.08
7412.38
7411.68
7410.99
7410.3
7409.62
7408.94
7408.26
7407.59
7406.92
7406.26
7405.6
7404.95
7404.29
7403.64
7403
7402.35
7401.71
7401.07
7400.42
7399.78
7399.14
7398.5
7397.86
7397.22
7396.58
7395.94
7395.29
7394.65
7394
7393.35
7392.7
7392.05
7391.37
7390.71
7390.05
7389.39
7388.73
7388.06
7387.39
7386.7
7386.01
7385.32
7384.62
7383.91
7383.2
7382.48
7381.76
7381.03
7380.3
7379.57
7378.83
7378.09
7377.35
7376.62
7375.87
7375.13
7374.38
7373.64
7372.9
7372.17
7371.42
7370.7
7369.97
7369.24
7368.52
7367.79
7367.08
7366.34
7365.66
7364.97
7364.31
7363.59
7362.94
7361.98
7361.5
7361.06
7360.55
7360.03
7359.5
7358.98
7358.48
7357.99
7357.51
7357.02
7356.53
7356.04
7355.55
7355.05
7354.56
7354.07
7353.57
7353.08
7352.59
7352.1
7351.61
7351.12
7350.63
7350.15
7349.66
7349.18
7348.69
7348.21
7347.73
7347.24
7346.75
7346.27
7345.78
7345.28
7344.78
7344.28
7343.77
7343.26
7342.73
7342.21
7341.67
7341.12
7340.56
7339.99
7339.4
7338.81
7338.2
7337.57
7336.93
7336.27
7335.59
7334.89
7334.18
7333.44
7332.69
7331.91
7331.11
7330.28
7329.43
7328.56
7327.66
7326.74
7325.79
7324.81
7323.8
7322.77
7321.71
7320.63
7319.51
7318.37
7317.19
7315.99
7314.76
7313.49
7312.2
7310.88
7309.53
7308.15
7306.74
7305.29
7303.82
7302.32
7300.78
7299.22
7297.63
7295.98
7294.12
7364.97
7364.93
7363.65
7362.49
7361.75
7361.14
7360.59
7360.09
7359.56
7359.03
7358.62
7358.47
7358.4
7358.4
7358.38
7358.33
7358.29
7358.35
7358.66
7359.4
7360.61
7362.17
7363.98
7365.89
7367.78
7369.52
7371.02
7372.35
7373.63
7374.98
7376.49
7378.34
7380.48
7382.88
7385.43
7388.06
7390.68
7393.24
7395.78
7398.21
7400.48
7402.75
7405.03
7407.32
7409.6
7411.88
7414.12
7416.35
7418.57
7420.76
7422.92
7425.06
7427.15
7429.2
7431.21
7433.18
7435.08
7436.94
7438.75
7440.48
7442.12
7443.67
7445.13
7446.5
7447.78
7448.98
7450.11
7451.15
7452.13
7453.05
7453.89
7454.62
7455.24
7455.74
7456.15
7456.41
7456.59
7456.67
7456.63
7456.43
7456.13
7455.6
7454.92
7454.17
7453.51
7453.46
7453.92
7453.58
7449.68
7442.68
7445.87
7442.84
7441.07
7438.89
7436.69
7433.22
7431.24
7428.14
7425.22
7422.12
7418.6
7414.94
7410.89
7405.84
7401.17
7395.86
7391.78
7386.48
7385.16
7378.1
7366.1
7357.61
7348.96
7340.44
7332.15
7323.11
7313.21
7303.1
7292.64
7282
7270.89
7259.07
7247.1
7235.13
7222.74
7213.4
7200.01
7182.31
7168
7153.63
7139.4
7125.56
7111.26
7096.71
7082.43
7068.3
7054.49
7040.77
7027.3
7014.02
7000.96
6988.15
6975.64
6963.4
6951.48
6939.91
6928.7
6917.84
6907.34
6897.21
6887.46
6878.08
6869.09
6860.46
6852.21
6844.31
6836.76
6829.56
6822.68
6816.12
6809.86
6803.9
6798.2
6792.76
6787.55
6782.58
6777.81
6773.25
6768.9
6764.75
6760.82
6757.12
6753.68
6750.49
6747.59
6744.97
6742.65
6740.64
6738.94
6737.55
6736.49
6735.75
6735.33
6735.25
6735.48
6736.04
6736.91
6738.11
6739.62
6741.43
6743.54
6745.94
6748.62
6751.57
6754.79
6758.28
6762.02
6766
6770.2
6774.62
6779.25
6784.09
6789.11
6794.31
6799.67
6805.19
6810.85
6816.64
6822.57
6828.61
6834.75
6840.98
6847.29
6853.67
6860.12
6866.63
6873.19
6879.78
6886.4
6893.04
6899.69
6906.36
6913.03
6919.69
6926.34
6932.97
6939.57
6946.13
6952.67
6959.17
6965.63
6972.05
6978.41
6984.72
6990.96
6997.15
7003.27
7009.32
7015.31
7021.23
7027.08
7032.85
7038.54
7044.16
7049.69
7055.15
7060.54
7065.84
7071.07
7076.2
7081.25
7086.21
7091.09
7095.89
7100.61
7105.25
7109.79
7114.25
7118.62
7122.9
7127.11
7131.22
7135.25
7139.19
7143.04
7146.81
7150.49
7154.08
7157.59
7161.01
7164.34
7167.59
7170.75
7173.83
7176.83
7179.74
7182.56
7185.3
7187.95
7190.53
7193.02
7195.44
7197.78
7200.03
7202.21
7204.32
7206.34
7208.3
7210.19
7212.01
7213.76
7215.45
7217.07
7218.63
7220.14
7221.58
7222.98
7224.32
7225.62
7226.87
7228.08
7229.25
7230.39
7231.49
7232.56
7233.6
7234.62
7235.61
7236.57
7237.5
7238.41
7239.28
7240.13
7240.94
7241.72
7242.46
7243.17
7243.84
7244.47
7245.07
7245.62
7246.14
7246.62
7247.06
7247.46
7247.82
7248.14
7248.42
7248.66
7248.86
7249.02
7249.13
7249.21
7249.25
7249.25
7249.21
7249.13
7249.01
7248.85
7248.66
7248.43
7248.17
7247.87
7247.54
7247.18
7246.79
7246.36
7245.91
7245.43
7244.92
7244.39
7243.83
7243.25
7242.65
7242.03
7241.39
7240.74
7240.06
7239.38
7238.68
7237.96
7237.24
7236.5
7235.76
7235.01
7234.25
7233.49
7232.73
7231.96
7231.19
7230.41
7229.64
7228.86
7228.09
7227.32
7226.55
7225.79
7225.02
7224.26
7223.51
7222.76
7222.01
7221.27
7220.53
7219.8
7219.07
7218.35
7217.64
7216.93
7216.22
7215.53
7214.83
7214.14
7213.46
7212.78
7212.11
7211.44
7210.77
7210.11
7209.45
7208.79
7208.14
7207.49
7206.84
7206.2
7205.56
7204.91
7204.27
7203.63
7202.99
7202.35
7201.71
7201.07
7200.43
7199.79
7199.15
7198.5
7197.85
7197.19
7196.54
7195.88
7195.24
7194.6
7193.94
7193.28
7192.61
7191.94
7191.25
7190.57
7189.87
7189.18
7188.46
7187.76
7187.03
7186.32
7185.58
7184.86
7184.12
7183.39
7182.65
7181.9
7181.16
7180.42
7179.67
7178.92
7178.18
7177.43
7176.69
7175.94
7175.21
7174.45
7173.73
7172.96
7172.27
7171.57
7170.87
7170.17
7169.43
7168.75
7167.72
7167.21
7166.74
7166.19
7165.64
7165.07
7164.51
7163.97
7163.44
7162.92
7162.4
7161.89
7161.38
7160.88
7160.37
7159.87
7159.37
7158.87
7158.37
7157.87
7157.37
7156.88
7156.39
7155.89
7155.4
7154.91
7154.43
7153.94
7153.46
7152.98
7152.5
7152.02
7151.53
7151.05
7150.57
7150.09
7149.6
7149.11
7148.62
7148.12
7147.62
7147.11
7146.6
7146.07
7145.54
7145
7144.45
7143.88
7143.31
7142.72
7142.11
7141.49
7140.86
7140.2
7139.53
7138.84
7138.13
7137.4
7136.65
7135.88
7135.08
7134.26
7133.41
7132.55
7131.65
7130.73
7129.78
7128.81
7127.81
7126.78
7125.72
7124.64
7123.52
7122.38
7121.2
7120
7118.77
7117.51
7116.22
7114.9
7113.55
7112.16
7110.75
7109.31
7107.84
7106.34
7104.8
7103.24
7101.65
7100
7098.14
7167.12
7167.18
7165.86
7164.65
7163.82
7163.14
7162.45
7161.85
7161.31
7160.82
7160.53
7160.43
7160.43
7160.49
7160.61
7160.78
7161.04
7161.43
7162.04
7162.9
7164.05
7165.44
7167
7168.69
7170.41
7172.08
7173.71
7175.33
7176.93
7178.61
7180.41
7182.38
7184.52
7186.82
7189.26
7191.77
7194.32
7196.89
7199.42
7201.85
7204.14
7206.48
7208.82
7211.16
7213.49
7215.8
7218.08
7220.35
7222.6
7224.83
7227.03
7229.2
7231.32
7233.4
7235.45
7237.45
7239.4
7241.31
7243.14
7244.9
7246.56
7248.14
7249.64
7251.05
7252.36
7253.57
7254.71
7255.78
7256.73
7257.62
7258.45
7259.17
7259.76
7260.24
7260.6
7260.84
7260.99
7261.03
7260.96
7260.75
7260.43
7259.99
7259.43
7258.74
7257.9
7256.94
7255.83
7254.61
7253.61
7253.58
7253.59
7249.13
7240.05
7243.67
7239.89
7237.75
7235.1
7232.11
7227.93
7225.09
7221
7217.09
7213.03
7208.54
7203.83
7198.93
7192.83
7187.37
7181.09
7175.65
7169.91
7167.41
7159.43
7146.04
7136.33
7126.45
7116.79
7107.19
7096.78
7085.51
7073.99
7062.3
7050.45
7038.25
7025.35
7012.41
6999.5
6986.28
6976.18
6962.1
6944.01
6929.34
6914.78
6900.48
6886.39
6872.56
6858.65
6844.56
6830.85
6817.44
6804.25
6791.33
6778.67
6766.3
6754.26
6742.59
6731.26
6720.31
6709.71
6699.49
6689.65
6680.2
6671.12
6662.42
6654.09
6646.13
6638.52
6631.25
6624.32
6617.7
6611.39
6605.38
6599.63
6594.15
6588.91
6583.91
6579.12
6574.55
6570.19
6566.05
6562.13
6558.45
6555.01
6551.83
6548.94
6546.34
6544.04
6542.04
6540.36
6538.98
6537.94
6537.22
6536.84
6536.79
6537.06
6537.65
6538.57
6539.79
6541.35
6543.21
6545.37
6547.82
6550.56
6553.57
6556.84
6560.38
6564.18
6568.22
6572.49
6576.98
6581.68
6586.57
6591.66
6596.91
6602.33
6607.91
6613.63
6619.5
6625.48
6631.58
6637.78
6644.06
6650.42
6656.86
6663.36
6669.92
6676.52
6683.17
6689.83
6696.51
6703.21
6709.92
6716.62
6723.32
6730.01
6736.67
6743.31
6749.91
6756.48
6763.01
6769.49
6775.93
6782.32
6788.65
6794.92
6801.13
6807.27
6813.35
6819.35
6825.29
6831.16
6836.94
6842.65
6848.28
6853.83
6859.3
6864.7
6870.02
6875.25
6880.39
6885.45
6890.42
6895.31
6900.12
6904.84
6909.48
6914.03
6918.5
6922.87
6927.16
6931.37
6935.48
6939.51
6943.46
6947.31
6951.08
6954.77
6958.36
6961.87
6965.29
6968.62
6971.87
6975.03
6978.11
6981.1
6984.01
6986.83
6989.56
6992.22
6994.79
6997.28
6999.69
7002.02
7004.27
7006.45
7008.54
7010.57
7012.52
7014.4
7016.21
7017.96
7019.64
7021.25
7022.81
7024.3
7025.74
7027.13
7028.47
7029.76
7031.01
7032.21
7033.37
7034.5
7035.6
7036.66
7037.7
7038.7
7039.68
7040.64
7041.56
7042.46
7043.33
7044.17
7044.97
7045.74
7046.48
7047.19
7047.85
7048.48
7049.08
7049.63
7050.15
7050.63
7051.07
7051.47
7051.83
7052.15
7052.43
7052.67
7052.87
7053.03
7053.15
7053.22
7053.26
7053.26
7053.22
7053.14
7053.03
7052.87
7052.68
7052.45
7052.19
7051.89
7051.56
7051.19
7050.8
7050.37
7049.92
7049.43
7048.92
7048.39
7047.82
7047.24
7046.64
7046.01
7045.37
7044.71
7044.03
7043.34
7042.63
7041.91
7041.18
7040.45
7039.7
7038.94
7038.18
7037.42
7036.65
7035.88
7035.1
7034.32
7033.55
7032.77
7031.99
7031.21
7030.44
7029.67
7028.91
7028.14
7027.38
7026.63
7025.88
7025.14
7024.4
7023.66
7022.93
7022.21
7021.5
7020.79
7020.08
7019.38
7018.69
7018
7017.32
7016.64
7015.96
7015.29
7014.63
7013.96
7013.31
7012.65
7012
7011.35
7010.7
7010.06
7009.42
7008.77
7008.13
7007.49
7006.85
7006.21
7005.58
7004.94
7004.3
7003.66
7002.99
7002.35
7001.7
7001.07
7000.45
6999.81
6999.17
6998.51
6997.85
6997.18
6996.51
6995.83
6995.14
6994.44
6993.75
6993.04
6992.33
6991.61
6990.89
6990.16
6989.43
6988.69
6987.96
6987.21
6986.47
6985.72
6984.98
6984.23
6983.47
6982.72
6981.97
6981.22
6980.46
6979.72
6978.94
6978.23
6977.52
6976.8
6976.11
6975.34
6974.65
6973.58
6973.03
6972.54
6971.97
6971.38
6970.78
6970.18
6969.6
6969.04
6968.48
6967.93
6967.38
6966.84
6966.3
6965.77
6965.25
6964.73
6964.22
6963.7
6963.19
6962.68
6962.18
6961.67
6961.17
6960.67
6960.18
6959.68
6959.19
6958.71
6958.22
6957.74
6957.26
6956.78
6956.3
6955.82
6955.35
6954.87
6954.39
6953.91
6953.44
6952.95
6952.47
6951.98
6951.48
6950.98
6950.48
6949.96
6949.44
6948.91
6948.36
6947.81
6947.24
6946.66
6946.07
6945.46
6944.83
6944.18
6943.52
6942.84
6942.14
6941.41
6940.67
6939.9
6939.11
6938.3
6937.46
6936.6
6935.71
6934.79
6933.85
6932.88
6931.88
6930.86
6929.8
6928.72
6927.61
6926.47
6925.29
6924.09
6922.86
6921.6
6920.31
6918.99
6917.64
6916.26
6914.85
6913.41
6911.94
6910.44
6908.9
6907.34
6905.75
6904.1
6902.24
6968.87
6969.04
6967.67
6966.42
6965.53
6964.82
6964.09
6963.45
6962.91
6962.51
6962.31
6962.22
6962.26
6962.41
6962.65
6962.99
6963.44
6964.04
6964.82
6965.81
6966.99
6968.34
6969.84
6971.43
6973.08
6974.79
6976.5
6978.25
6980.04
6981.88
6983.84
6985.91
6988.12
6990.45
6992.89
6995.41
6997.96
7000.51
7003.01
7005.46
7007.75
7010.16
7012.57
7014.97
7017.35
7019.71
7022.04
7024.37
7026.67
7028.96
7031.21
7033.4
7035.57
7037.7
7039.78
7041.83
7043.83
7045.78
7047.65
7049.45
7051.16
7052.79
7054.33
7055.8
7057.16
7058.41
7059.55
7060.61
7061.57
7062.45
7063.24
7063.94
7064.52
7064.98
7065.33
7065.55
7065.65
7065.65
7065.53
7065.31
7064.94
7064.45
7063.83
7063.07
7062.19
7061.17
7060.03
7058.83
7057.48
7055.95
7054.25
7052.57
7052.17
7051.91
7046.63
7036.14
7039.54
7035.1
7032.08
7028.64
7024.68
7019.47
7015.66
7010.48
7005.61
7000.33
6995.04
6989.31
6983.7
6977.43
6970.51
6963.26
6956.62
6949.91
6946.29
6937.16
6922.11
6911.06
6900.05
6888.96
6878.06
6866.36
6853.86
6841.22
6828.5
6815.69
6802.61
6788.85
6775.24
6761.56
6747.78
6737.14
6722.67
6704.61
6689.78
6675.23
6661.73
6647.85
6634.41
6620.87
6607.29
6594.15
6581.38
6568.86
6556.7
6544.87
6533.41
6522.3
6511.58
6501.24
6491.3
6481.72
6472.54
6463.74
6455.32
6447.26
6439.57
6432.22
6425.21
6418.52
6412.14
6406.06
6400.26
6394.73
6389.45
6384.41
6379.6
6375.02
6370.66
6366.53
6362.63
6358.97
6355.55
6352.41
6349.54
6346.97
6344.7
6342.73
6341.07
6339.73
6338.72
6338.04
6337.7
6337.7
6338.02
6338.67
6339.63
6340.92
6342.52
6344.44
6346.67
6349.19
6352
6355.09
6358.44
6362.05
6365.92
6370.04
6374.39
6378.97
6383.74
6388.71
6393.87
6399.21
6404.7
6410.36
6416.17
6422.11
6428.17
6434.34
6440.6
6446.95
6453.39
6459.89
6466.47
6473.09
6479.75
6486.44
6493.17
6499.91
6506.66
6513.42
6520.17
6526.91
6533.64
6540.35
6547.03
6553.69
6560.29
6566.86
6573.38
6579.84
6586.26
6592.62
6598.92
6605.15
6611.32
6617.43
6623.46
6629.42
6635.3
6641.1
6646.83
6652.48
6658.05
6663.54
6668.95
6674.28
6679.52
6684.67
6689.74
6694.73
6699.63
6704.45
6709.18
6713.83
6718.39
6722.86
6727.24
6731.54
6735.75
6739.87
6743.9
6747.85
6751.7
6755.48
6759.17
6762.77
6766.27
6769.69
6773.03
6776.27
6779.43
6782.51
6785.5
6788.4
6791.22
6793.95
6796.6
6799.17
6801.65
6804.06
6806.38
6808.63
6810.8
6812.89
6814.91
6816.85
6818.73
6820.53
6822.27
6823.94
6825.55
6827.09
6828.58
6830.01
6831.39
6832.72
6834.01
6835.24
6836.44
6837.6
6838.72
6839.8
6840.86
6841.88
6842.88
6843.85
6844.79
6845.71
6846.59
6847.45
6848.28
6849.08
6849.84
6850.57
6851.27
6851.94
6852.56
6853.15
6853.71
6854.22
6854.7
6855.14
6855.54
6855.9
6856.22
6856.5
6856.74
6856.94
6857.1
6857.22
6857.3
6857.34
6857.34
6857.3
6857.22
6857.1
6856.94
6856.75
6856.52
6856.26
6855.96
6855.63
6855.26
6854.86
6854.43
6853.97
6853.49
6852.97
6852.43
6851.87
6851.28
6850.67
6850.04
6849.39
6848.72
6848.04
6847.34
6846.63
6845.9
6845.17
6844.42
6843.67
6842.91
6842.15
6841.37
6840.6
6839.82
6839.04
6838.26
6837.48
6836.69
6835.91
6835.13
6834.35
6833.58
6832.81
6832.04
6831.28
6830.52
6829.77
6829.02
6828.28
6827.54
6826.81
6826.09
6825.37
6824.66
6823.96
6823.26
6822.56
6821.87
6821.19
6820.51
6819.84
6819.17
6818.5
6817.84
6817.18
6816.52
6815.87
6815.22
6814.57
6813.93
6813.29
6812.65
6812.01
6811.37
6810.75
6810.11
6809.47
6808.8
6808.17
6807.52
6806.9
6806.31
6805.67
6805.05
6804.4
6803.76
6803.1
6802.44
6801.77
6801.1
6800.41
6799.73
6799.03
6798.34
6797.62
6796.92
6796.19
6795.48
6794.75
6794.02
6793.28
6792.55
6791.8
6791.06
6790.3
6789.55
6788.8
6788.04
6787.28
6786.51
6785.76
6784.96
6784.24
6783.49
6782.77
6781.98
6781.27
6780.16
6779.6
6779.1
6778.53
6777.9
6777.26
6776.62
6775.98
6775.36
6774.76
6774.17
6773.58
6773
6772.42
6771.85
6771.29
6770.74
6770.19
6769.65
6769.11
6768.58
6768.05
6767.53
6767
6766.49
6765.98
6765.47
6764.96
6764.46
6763.96
6763.47
6762.98
6762.49
6762
6761.52
6761.05
6760.57
6760.1
6759.63
6759.16
6758.69
6758.22
6757.75
6757.28
6756.8
6756.33
6755.85
6755.36
6754.87
6754.38
6753.88
6753.36
6752.84
6752.31
6751.77
6751.21
6750.64
6750.06
6749.46
6748.84
6748.21
6747.56
6746.89
6746.19
6745.48
6744.75
6743.99
6743.21
6742.4
6741.57
6740.71
6739.83
6738.92
6737.98
6737.02
6736.02
6735
6733.95
6732.87
6731.76
6730.62
6729.46
6728.26
6727.03
6725.77
6724.48
6723.16
6721.81
6720.43
6719.02
6717.58
6716.11
6714.61
6713.07
6711.51
6709.92
6708.28
6706.4
6770.28
6770.53
6769.14
6767.86
6766.94
6766.2
6765.46
6764.83
6764.32
6763.98
6763.81
6763.77
6763.87
6764.1
6764.46
6764.93
6765.53
6766.28
6767.18
6768.25
6769.47
6770.84
6772.33
6773.92
6775.6
6777.35
6779.16
6781.03
6782.95
6784.94
6787.03
6789.22
6791.52
6793.92
6796.41
6798.95
6801.49
6804.01
6806.49
6808.95
6811.39
6813.85
6816.31
6818.76
6821.19
6823.61
6826.02
6828.41
6830.79
6833.13
6835.43
6837.68
6839.89
6842.07
6844.21
6846.32
6848.38
6850.38
6852.31
6854.15
6855.92
6857.61
6859.2
6860.71
6862.14
6863.44
6864.61
6865.66
6866.64
6867.51
6868.29
6868.98
6869.56
6870.01
6870.35
6870.55
6870.63
6870.59
6870.41
6870.15
6869.75
6869.2
6868.5
6867.66
6866.69
6865.62
6864.42
6863.07
6861.62
6859.95
6858.14
6856.25
6854.19
6851.87
6849.6
6848.7
6848
6842.01
6830.13
6832.96
6827.59
6823.6
6819.3
6814.29
6808.14
6803.27
6797.2
6791.35
6785.27
6778.94
6772.3
6765.53
6758.26
6750.15
6741.72
6733.8
6725.83
6721.03
6710.75
6693.99
6681.59
6669.47
6657.19
6645.17
6632.36
6618.88
6605.32
6591.74
6578.17
6564.38
6549.93
6535.88
6521.14
6507.46
6494.04
6482.7
6468.64
6451.39
6437.12
6423.66
6410.1
6396.96
6383.96
6371.07
6358.66
6346.71
6335.05
6323.79
6312.89
6302.4
6292.3
6282.59
6273.26
6264.33
6255.78
6247.61
6239.81
6232.35
6225.24
6218.46
6211.99
6205.84
6199.98
6194.39
6189.07
6184
6179.17
6174.58
6170.23
6166.12
6162.25
6158.62
6155.24
6152.14
6149.32
6146.79
6144.57
6142.64
6141.03
6139.74
6138.78
6138.16
6137.88
6137.93
6138.32
6139.04
6140.08
6141.44
6143.12
6145.11
6147.42
6150.03
6152.93
6156.11
6159.56
6163.27
6167.24
6171.45
6175.89
6180.56
6185.44
6190.5
6195.76
6201.19
6206.79
6212.55
6218.45
6224.48
6230.63
6236.87
6243.22
6249.66
6256.18
6262.78
6269.43
6276.13
6282.86
6289.63
6296.42
6303.22
6310.04
6316.86
6323.67
6330.47
6337.25
6344.01
6350.75
6357.45
6364.11
6370.72
6377.28
6383.78
6390.23
6396.62
6402.96
6409.23
6415.43
6421.56
6427.62
6433.6
6439.51
6445.34
6451.09
6456.77
6462.36
6467.86
6473.29
6478.63
6483.89
6489.06
6494.15
6499.15
6504.06
6508.89
6513.63
6518.29
6522.86
6527.34
6531.73
6536.03
6540.25
6544.37
6548.41
6552.36
6556.23
6560
6563.69
6567.29
6570.8
6574.22
6577.56
6580.81
6583.97
6587.04
6590.02
6592.92
6595.74
6598.47
6601.11
6603.68
6606.16
6608.56
6610.87
6613.11
6615.28
6617.36
6619.37
6621.31
6623.17
6624.97
6626.7
6628.36
6629.96
6631.5
6632.98
6634.4
6635.77
6637.09
6638.37
6639.6
6640.78
6641.93
6643.04
6644.11
6645.16
6646.17
6647.15
6648.11
6649.04
6649.94
6650.81
6651.66
6652.47
6653.26
6654.02
6654.74
6655.43
6656.09
6656.71
6657.29
6657.84
6658.36
6658.83
6659.27
6659.67
6660.03
6660.34
6660.63
6660.87
6661.07
6661.23
6661.35
6661.43
6661.47
6661.47
6661.43
6661.35
6661.23
6661.08
6660.88
6660.65
6660.39
6660.09
6659.75
6659.38
6658.98
6658.55
6658.08
6657.59
6657.07
6656.53
6655.96
6655.37
6654.75
6654.11
6653.46
6652.78
6652.09
6651.39
6650.67
6649.94
6649.19
6648.44
6647.68
6646.91
6646.14
6645.36
6644.58
6643.79
6643
6642.22
6641.43
6640.64
6639.85
6639.07
6638.28
6637.5
6636.73
6635.96
6635.19
6634.43
6633.67
6632.92
6632.18
6631.44
6630.71
6629.98
6629.26
6628.55
6627.84
6627.14
6626.45
6625.76
6625.08
6624.39
6623.72