/*--------------------------------*- C++ -*----------------------------------*\
| =========                 |                                                 |
| \\      /  F ield         | OpenFOAM: The Open Source CFD Toolbox           |
|  \\    /   O peration     | Version:  v2006                                 |
|   \\  /    A nd           | Website:  www.openfoam.com                      |
|    \\/     M anipulation  |                                                 |
\*---------------------------------------------------------------------------*/
FoamFile
{
    version     2.0;
    format      ascii;
    class       volScalarField;
    location    "9.3";
    object      p_rgh;
}
// * * * * * * * * * * * * * * * * * * * * * * * * * * * * * * * * * * * * * //

dimensions      [1 -1 -2 0 0 0 0];


internalField   nonuniform List<scalar> 
33000
(
8055.07
8054.08
8053.15
8052.26
8051.88
8051.76
8051.73
8051.55
8051.22
8050.75
8050.13
8049.51
8048.98
8048.62
8048.38
8048.16
8048.06
8047.99
8048.12
8048.54
8049.32
8050.46
8051.88
8053.58
8055.33
8056.91
8058.42
8060
8061.56
8063.14
8064.8
8066.63
8068.64
8070.83
8073.25
8075.73
8078.16
8080.49
8082.75
8084.95
8087.19
8089.43
8091.65
8093.85
8096.03
8098.27
8100.51
8102.7
8104.87
8106.95
8109.08
8111.2
8113.29
8115.33
8117.3
8119.21
8121.04
8122.79
8124.47
8126.1
8127.66
8129.1
8130.55
8131.96
8133.27
8134.52
8135.69
8136.79
8137.82
8138.77
8139.62
8140.38
8141.08
8141.74
8142.41
8143.03
8143.77
8144.21
8142.44
8139.53
8142.07
8140.66
8140.37
8139.67
8138.77
8137.27
8136.44
8135.16
8133.88
8132.23
8130.7
8128.91
8127.09
8125.29
8123.64
8121.87
8120.73
8119
8119.68
8116.87
8109.81
8105.79
8100.94
8095.54
8090.27
8084.47
8077.88
8071.29
8064.34
8057.26
8049.77
8042.15
8034.32
8026.31
8018.59
8010.33
8004.25
7994.6
7980.97
7970.28
7958.59
7946.35
7934.26
7921.47
7908.05
7894.62
7880.98
7867.16
7853.25
7839.21
7825.05
7810.91
7796.84
7782.8
7768.84
7754.98
7741.28
7727.74
7714.4
7701.25
7688.32
7675.69
7663.34
7651.32
7639.58
7628.16
7617.07
7606.3
7595.96
7585.99
7576.35
7567.08
7558.16
7549.63
7541.46
7533.66
7526.2
7519.07
7512.26
7505.77
7499.57
7493.67
7488.03
7482.65
7477.5
7472.58
7467.86
7463.33
7458.97
7454.82
7450.91
7447.23
7443.79
7440.6
7437.68
7435.05
7432.74
7430.74
7429.04
7427.65
7426.56
7425.8
7425.35
7425.21
7425.41
7425.93
7426.76
7427.89
7429.32
7431.06
7433.1
7435.43
7438.05
7440.94
7444.08
7447.48
7451.11
7454.99
7459.1
7463.44
7468
7472.75
7477.67
7482.77
7488.04
7493.47
7499.05
7504.76
7510.59
7516.52
7522.57
7528.74
7534.98
7541.29
7547.66
7554.08
7560.54
7567.06
7573.63
7580.22
7586.82
7593.42
7600.02
7606.61
7613.19
7619.77
7626.34
7632.87
7639.37
7645.82
7652.23
7658.59
7664.91
7671.19
7677.41
7683.57
7689.66
7695.68
7701.64
7707.53
7713.35
7719.09
7724.76
7730.37
7735.9
7741.34
7746.7
7751.97
7757.17
7762.3
7767.35
7772.3
7777.18
7781.96
7786.66
7791.28
7795.82
7800.27
7804.64
7808.92
7813.11
7817.22
7821.24
7825.18
7829.04
7832.8
7836.47
7840.06
7843.57
7846.99
7850.33
7853.58
7856.74
7859.82
7862.81
7865.72
7868.55
7871.3
7873.97
7876.55
7879.05
7881.47
7883.82
7886.08
7888.27
7890.39
7892.43
7894.4
7896.3
7898.13
7899.89
7901.58
7903.22
7904.8
7906.31
7907.77
7909.18
7910.53
7911.84
7913.11
7914.33
7915.51
7916.66
7917.77
7918.85
7919.9
7920.93
7921.93
7922.9
7923.85
7924.76
7925.65
7926.5
7927.31
7928.1
7928.84
7929.55
7930.23
7930.86
7931.46
7932.02
7932.54
7933.02
7933.46
7933.86
7934.22
7934.54
7934.82
7935.06
7935.25
7935.41
7935.53
7935.6
7935.64
7935.63
7935.59
7935.51
7935.39
7935.24
7935.05
7934.82
7934.56
7934.26
7933.93
7933.57
7933.18
7932.76
7932.31
7931.84
7931.33
7930.8
7930.25
7929.68
7929.08
7928.47
7927.84
7927.19
7926.52
7925.84
7925.14
7924.44
7923.72
7922.99
7922.26
7921.51
7920.76
7920
7919.24
7918.48
7917.71
7916.94
7916.18
7915.41
7914.64
7913.88
7913.11
7912.35
7911.59
7910.84
7910.09
7909.34
7908.6
7907.86
7907.13
7906.4
7905.68
7904.96
7904.25
7903.54
7902.84
7902.14
7901.44
7900.75
7900.07
7899.39
7898.72
7898.04
7897.38
7896.72
7896.06
7895.4
7894.75
7894.1
7893.45
7892.81
7892.16
7891.52
7890.88
7890.24
7889.6
7888.96
7888.31
7887.68
7887.03
7886.39
7885.75
7885.1
7884.45
7883.81
7883.15
7882.5
7881.84
7881.17
7880.51
7879.84
7879.17
7878.49
7877.8
7877.12
7876.43
7875.75
7875.06
7874.36
7873.66
7872.95
7872.23
7871.5
7870.78
7870.05
7869.31
7868.58
7867.84
7867.1
7866.36
7865.63
7864.89
7864.15
7863.42
7862.69
7861.95
7861.22
7860.49
7859.77
7859.05
7858.33
7857.62
7856.91
7856.21
7855.52
7854.83
7854.15
7853.49
7852.81
7852.18
7851.57
7850.94
7850.36
7849.81
7849.01
7848.63
7848.27
7847.85
7847.41
7846.96
7846.49
7846.01
7845.53
7845.04
7844.56
7844.07
7843.58
7843.09
7842.6
7842.11
7841.63
7841.14
7840.65
7840.16
7839.68
7839.19
7838.7
7838.22
7837.73
7837.24
7836.74
7836.25
7835.75
7835.25
7834.74
7834.22
7833.7
7833.17
7832.64
7832.09
7831.54
7830.97
7830.39
7829.8
7829.2
7828.58
7827.95
7827.3
7826.63
7825.95
7825.25
7824.53
7823.79
7823.02
7822.24
7821.43
7820.6
7819.75
7818.87
7817.97
7817.04
7816.09
7815.11
7814.1
7813.07
7812.01
7810.92
7809.8
7808.65
7807.48
7806.27
7805.04
7803.78
7802.48
7801.16
7799.81
7798.43
7797.02
7795.57
7794.1
7792.6
7791.06
7789.5
7787.91
7786.27
7784.41
8054.08
8053.64
8052.4
8051.36
8050.88
8050.64
8050.52
8050.31
8049.91
8049.4
8048.79
8048.27
8047.91
8047.61
8047.49
8047.39
8047.24
8047.07
8047.01
8047.32
8048.2
8049.56
8051.29
8053.31
8055.3
8057.03
8058.57
8059.94
8061.31
8062.74
8064.3
8066.08
8068.16
8070.45
8072.91
8075.54
8078.04
8080.41
8082.69
8084.9
8087.2
8089.46
8091.67
8093.8
8095.92
8098.25
8100.55
8102.77
8104.92
8106.94
8109.07
8111.26
8113.37
8115.41
8117.39
8119.3
8121.14
8122.9
8124.6
8126.21
8127.67
8129.21
8130.65
8132.03
8133.43
8134.69
8135.84
8136.93
8137.95
8138.88
8139.7
8140.36
8140.96
8141.53
8142.03
8142.53
8142.88
8143.04
8143.25
8143.98
8144.2
8141.58
8137.43
8140.23
8138.74
8138
8137.13
8135.83
8134.33
8132.07
8130.91
8128.88
8127.05
8125.04
8123.18
8121.06
8119.07
8117.04
8114.73
8112.68
8109.74
8109.6
8104.97
8095.98
8090.11
8083.74
8077.63
8071.43
8065.17
8058.29
8050.51
8042.54
8034.38
8026.08
8017.81
8009.31
8000.55
7991.37
7981.15
7973.68
7962.36
7946.8
7934.23
7921.17
7908.05
7895.2
7881.74
7867.67
7853.58
7839.43
7825.19
7811.06
7796.98
7782.91
7768.9
7754.99
7741.26
7727.69
7714.33
7701.14
7688.18
7675.52
7663.14
7651.08
7639.35
7627.9
7616.76
7605.97
7595.62
7585.65
7576
7566.71
7557.76
7549.22
7541.03
7533.24
7525.77
7518.62
7511.8
7505.3
7499.11
7493.2
7487.55
7482.14
7476.97
7472.07
7467.35
7462.81
7458.43
7454.27
7450.37
7446.7
7443.25
7440.06
7437.12
7434.48
7432.15
7430.13
7428.47
7427.1
7426.02
7425.26
7424.81
7424.65
7424.83
7425.38
7426.24
7427.39
7428.82
7430.55
7432.6
7434.93
7437.59
7440.49
7443.65
7447.06
7450.69
7454.59
7458.71
7463.08
7467.66
7472.42
7477.36
7482.46
7487.75
7493.19
7498.8
7504.52
7510.35
7516.29
7522.36
7528.56
7534.82
7541.14
7547.52
7553.95
7560.41
7566.94
7573.52
7580.14
7586.75
7593.36
7599.97
7606.55
7613.15
7619.73
7626.31
7632.86
7639.37
7645.83
7652.23
7658.6
7664.93
7671.21
7677.44
7683.62
7689.71
7695.74
7701.7
7707.59
7713.39
7719.14
7724.82
7730.44
7735.98
7741.42
7746.78
7752.05
7757.25
7762.39
7767.45
7772.4
7777.28
7782.06
7786.76
7791.38
7795.92
7800.38
7804.75
7809.03
7813.22
7817.33
7821.36
7825.3
7829.15
7832.91
7836.58
7840.17
7843.68
7847.11
7850.45
7853.7
7856.86
7859.94
7862.92
7865.83
7868.66
7871.41
7874.08
7876.66
7879.16
7881.58
7883.92
7886.18
7888.37
7890.49
7892.53
7894.5
7896.39
7898.22
7899.98
7901.67
7903.3
7904.88
7906.4
7907.85
7909.26
7910.61
7911.91
7913.17
7914.4
7915.58
7916.72
7917.83
7918.91
7919.96
7920.99
7921.99
7922.96
7923.9
7924.82
7925.7
7926.55
7927.36
7928.15
7928.89
7929.6
7930.28
7930.91
7931.51
7932.07
7932.59
7933.07
7933.51
7933.91
7934.27
7934.59
7934.87
7935.11
7935.3
7935.46
7935.58
7935.65
7935.69
7935.69
7935.64
7935.56
7935.44
7935.29
7935.1
7934.87
7934.61
7934.31
7933.98
7933.62
7933.23
7932.81
7932.36
7931.88
7931.38
7930.85
7930.3
7929.73
7929.13
7928.51
7927.88
7927.23
7926.56
7925.88
7925.18
7924.48
7923.76
7923.03
7922.29
7921.54
7920.79
7920.03
7919.27
7918.51
7917.74
7916.97
7916.2
7915.43
7914.67
7913.9
7913.14
7912.37
7911.61
7910.86
7910.11
7909.36
7908.62
7907.88
7907.15
7906.42
7905.7
7904.98
7904.26
7903.56
7902.85
7902.15
7901.46
7900.77
7900.09
7899.41
7898.73
7898.06
7897.39
7896.73
7896.07
7895.42
7894.77
7894.12
7893.47
7892.82
7892.18
7891.53
7890.89
7890.25
7889.61
7888.97
7888.33
7887.69
7887.05
7886.41
7885.76
7885.12
7884.47
7883.82
7883.17
7882.51
7881.85
7881.19
7880.52
7879.85
7879.17
7878.5
7877.82
7877.15
7876.47
7875.79
7875.08
7874.39
7873.67
7872.96
7872.23
7871.51
7870.78
7870.05
7869.32
7868.58
7867.84
7867.1
7866.36
7865.63
7864.9
7864.15
7863.41
7862.67
7861.94
7861.2
7860.48
7859.75
7859.03
7858.32
7857.61
7856.9
7856.19
7855.5
7854.78
7854.12
7853.47
7852.83
7852.16
7851.55
7850.65
7850.2
7849.8
7849.32
7848.85
7848.39
7847.93
7847.46
7846.99
7846.51
7846.03
7845.55
7845.06
7844.57
7844.08
7843.59
7843.1
7842.61
7842.12
7841.63
7841.14
7840.66
7840.17
7839.68
7839.2
7838.71
7838.22
7837.74
7837.25
7836.75
7836.26
7835.76
7835.26
7834.75
7834.24
7833.72
7833.2
7832.66
7832.12
7831.57
7831
7830.43
7829.84
7829.24
7828.62
7827.99
7827.35
7826.68
7826
7825.3
7824.58
7823.84
7823.08
7822.3
7821.49
7820.66
7819.81
7818.93
7818.03
7817.11
7816.15
7815.17
7814.17
7813.13
7812.07
7810.98
7809.86
7808.72
7807.54
7806.34
7805.1
7803.84
7802.55
7801.23
7799.87
7798.49
7797.08
7795.64
7794.16
7792.66
7791.12
7789.56
7787.97
7786.33
7784.47
8053.06
8052.88
8051.65
8050.55
8049.88
8049.4
8049.03
8048.67
8048.18
8047.63
8046.96
8046.47
8046.31
8046.43
8046.46
8046.37
8046.14
8045.87
8045.74
8046.12
8047.18
8048.66
8050.56
8052.8
8054.87
8056.74
8058.29
8059.58
8060.79
8062.02
8063.43
8065.15
8067.23
8069.65
8072.25
8074.95
8077.62
8080.15
8082.36
8084.81
8087.22
8089.48
8091.65
8093.62
8095.83
8098.19
8100.62
8102.88
8105.03
8106.99
8109.11
8111.3
8113.52
8115.6
8117.59
8119.51
8121.36
8123.01
8124.7
8126.41
8128.14
8129.78
8131.15
8132.25
8133.51
8134.74
8136.09
8137.26
8138.28
8139.2
8140.01
8140.59
8141.18
8141.74
8142.37
8142.81
8143.08
8143.24
8143.1
8142.8
8142.56
8142.43
8142.98
8143.24
8140.34
8134.7
8136.95
8136.28
8134.82
8132.99
8131.48
8129.54
8126.64
8125.24
8122.95
8120.77
8118.5
8115.93
8113.43
8110.47
8106.9
8103.35
8099.85
8095.98
8095.03
8089.46
8079.32
8072.52
8065.01
8057.98
8050.59
8043.34
8035.45
8026.82
8018.1
8009.15
7999.96
7990.24
7979.77
7969.09
7958.37
7947.02
7938.42
7925.81
7909.01
7895.47
7881.63
7867.89
7854.37
7840.21
7825.68
7811.37
7797.21
7783.07
7769
7754.99
7741.21
7727.63
7714.21
7700.97
7687.9
7675.19
7662.75
7650.67
7638.88
7627.33
7616.11
7605.33
7594.98
7584.97
7575.26
7565.85
7556.94
7548.43
7540.24
7532.34
7524.78
7517.61
7510.81
7504.34
7498.14
7492.2
7486.52
7481.06
7475.86
7470.96
7466.25
7461.67
7457.27
7453.13
7449.22
7445.58
7442.13
7438.94
7436
7433.32
7430.99
7428.97
7427.28
7425.97
7424.9
7424.15
7423.7
7423.53
7423.72
7424.26
7425.17
7426.37
7427.84
7429.6
7431.62
7433.97
7436.61
7439.59
7442.79
7446.23
7449.89
7453.79
7457.95
7462.37
7466.98
7471.76
7476.71
7481.85
7487.17
7492.67
7498.29
7504.04
7509.87
7515.85
7521.95
7528.2
7534.49
7540.83
7547.24
7553.69
7560.17
7566.72
7573.31
7579.97
7586.61
7593.24
7599.87
7606.47
7613.07
7619.67
7626.26
7632.84
7639.37
7645.84
7652.25
7658.63
7664.97
7671.3
7677.54
7683.71
7689.81
7695.84
7701.78
7707.67
7713.51
7719.28
7725
7730.62
7736.14
7741.59
7746.95
7752.22
7757.43
7762.56
7767.64
7772.6
7777.48
7782.26
7786.96
7791.6
7796.16
7800.61
7804.96
7809.23
7813.44
7817.57
7821.6
7825.54
7829.39
7833.14
7836.8
7840.4
7843.91
7847.35
7850.69
7853.93
7857.09
7860.17
7863.16
7866.06
7868.88
7871.63
7874.3
7876.88
7879.38
7881.8
7884.13
7886.39
7888.57
7890.69
7892.73
7894.69
7896.59
7898.41
7900.16
7901.85
7903.49
7905.06
7906.57
7908.02
7909.42
7910.77
7912.07
7913.32
7914.53
7915.71
7916.86
7917.97
7919.04
7920.09
7921.11
7922.11
7923.08
7924.02
7924.93
7925.81
7926.66
7927.47
7928.25
7928.99
7929.7
7930.38
7931.01
7931.61
7932.17
7932.69
7933.17
7933.61
7934.01
7934.37
7934.69
7934.97
7935.21
7935.41
7935.56
7935.68
7935.76
7935.79
7935.79
7935.75
7935.67
7935.55
7935.39
7935.2
7934.98
7934.71
7934.42
7934.09
7933.73
7933.33
7932.91
7932.46
7931.98
7931.48
7930.95
7930.39
7929.82
7929.22
7928.6
7927.97
7927.31
7926.64
7925.96
7925.26
7924.55
7923.83
7923.1
7922.36
7921.61
7920.86
7920.1
7919.34
7918.57
7917.8
7917.03
7916.25
7915.48
7914.72
7913.95
7913.18
7912.42
7911.66
7910.9
7910.15
7909.4
7908.65
7907.91
7907.18
7906.45
7905.73
7905.01
7904.29
7903.58
7902.88
7902.18
7901.49
7900.8
7900.12
7899.44
7898.76
7898.09
7897.42
7896.76
7896.1
7895.44
7894.79
7894.14
7893.5
7892.85
7892.2
7891.56
7890.92
7890.28
7889.64
7889
7888.36
7887.72
7887.08
7886.44
7885.79
7885.15
7884.5
7883.85
7883.2
7882.54
7881.87
7881.21
7880.55
7879.89
7879.23
7878.56
7877.89
7877.2
7876.51
7875.82
7875.12
7874.41
7873.7
7872.98
7872.26
7871.53
7870.8
7870.07
7869.33
7868.59
7867.85
7867.11
7866.37
7865.62
7864.88
7864.14
7863.4
7862.66
7861.92
7861.19
7860.47
7859.74
7859.02
7858.29
7857.58
7856.84
7856.16
7855.47
7854.8
7854.09
7853.44
7852.48
7851.99
7851.56
7851.05
7850.53
7850.01
7849.48
7848.98
7848.49
7847.99
7847.51
7847.02
7846.54
7846.05
7845.55
7845.06
7844.56
7844.07
7843.58
7843.08
7842.59
7842.11
7841.62
7841.13
7840.64
7840.16
7839.68
7839.19
7838.71
7838.23
7837.74
7837.25
7836.77
7836.27
7835.78
7835.28
7834.78
7834.27
7833.76
7833.23
7832.7
7832.16
7831.61
7831.06
7830.49
7829.9
7829.31
7828.7
7828.07
7827.43
7826.77
7826.09
7825.39
7824.68
7823.94
7823.19
7822.41
7821.61
7820.78
7819.93
7819.06
7818.16
7817.24
7816.29
7815.31
7814.3
7813.27
7812.21
7811.13
7810.01
7808.87
7807.69
7806.49
7805.26
7803.99
7802.7
7801.38
7800.03
7798.65
7797.24
7795.79
7794.32
7792.82
7791.28
7789.72
7788.13
7786.48
7784.62
8051.67
8051.64
8050.35
8049.19
8048.45
8047.84
8047.29
8046.79
8046.26
8045.69
8045.01
8044.65
8044.83
8045.08
8045.08
8045.03
8044.99
8045.05
8045.36
8046.1
8047.31
8048.87
8050.68
8052.59
8054.48
8056.22
8057.69
8058.93
8060.17
8061.62
8063.18
8065.03
8067.18
8069.58
8072.13
8074.75
8077.34
8079.56
8082.02
8084.67
8087.14
8089.44
8091.67
8093.59
8095.79
8098.29
8100.77
8103.04
8105.22
8107.13
8109.24
8111.46
8113.77
8115.89
8117.91
8119.87
8121.74
8123.39
8125.11
8127.02
8128.8
8130.36
8131.8
8132.9
8133.96
8135.17
8136.32
8137.66
8138.81
8139.75
8140.58
8141.3
8141.67
8142.17
8142.75
8143.11
8143.29
8143.37
8143.33
8143.13
8142.81
8142.26
8141.51
8140.54
8139.85
8139.8
8140.36
8140.21
8136.37
8129.38
8132.56
8129.5
8127.46
8125.41
8123.35
8119.91
8117.88
8114.71
8111.79
8108.76
8105.29
8101.64
8097.56
8092.47
8087.81
8082.54
8078.48
8073.18
8071.86
8064.79
8052.78
8044.13
8035.41
8026.93
8018.79
8009.8
7999.91
7989.79
7979.32
7968.69
7957.58
7945.76
7933.71
7921.62
7909.23
7900.01
7886.7
7868.99
7854.57
7840.1
7825.87
7812.15
7797.95
7783.41
7769.11
7754.85
7741.02
7727.33
7713.97
7700.69
7687.54
7674.67
7662.19
7650.05
7638.12
7626.42
7615.18
7604.33
7593.97
7583.88
7574.05
7564.61
7555.64
7547.12
7538.9
7530.93
7523.32
7516.11
7509.23
7502.73
7496.55
7490.59
7484.84
7479.32
7474.12
7469.14
7464.46
7459.92
7455.47
7451.32
7447.39
7443.77
7440.37
7437.19
7434.26
7431.55
7429.21
7427.2
7425.55
7424.25
7423.19
7422.45
7422
7421.84
7422.05
7422.61
7423.51
7424.79
7426.31
7428.12
7430.2
7432.53
7435.2
7438.17
7441.47
7444.97
7448.71
7452.65
7456.8
7461.22
7465.88
7470.76
7475.78
7480.96
7486.36
7491.87
7497.52
7503.26
7509.17
7515.21
7521.37
7527.66
7533.99
7540.37
7546.8
7553.25
7559.79
7566.39
7573.04
7579.73
7586.38
7593.04
7599.71
7606.37
7612.98
7619.58
7626.18
7632.77
7639.35
7645.86
7652.29
7658.67
7665.04
7671.4
7677.66
7683.84
7689.95
7695.95
7701.93
7707.85
7713.72
7719.54
7725.24
7730.85
7736.37
7741.79
7747.17
7752.47
7757.72
7762.89
7767.94
7772.89
7777.73
7782.54
7787.31
7791.94
7796.49
7800.93
7805.27
7809.55
7813.76
7817.91
7821.95
7825.89
7829.74
7833.5
7837.16
7840.74
7844.26
7847.7
7851.04
7854.28
7857.43
7860.5
7863.52
7866.43
7869.25
7871.97
7874.62
7877.2
7879.71
7882.13
7884.45
7886.7
7888.89
7891.01
7893.03
7894.98
7896.85
7898.69
7900.46
7902.15
7903.77
7905.32
7906.81
7908.26
7909.67
7911.02
7912.32
7913.57
7914.76
7915.93
7917.08
7918.18
7919.25
7920.28
7921.3
7922.3
7923.27
7924.2
7925.09
7925.97
7926.83
7927.64
7928.41
7929.14
7929.85
7930.53
7931.17
7931.76
7932.32
7932.84
7933.32
7933.76
7934.16
7934.52
7934.84
7935.12
7935.36
7935.56
7935.71
7935.83
7935.91
7935.95
7935.95
7935.9
7935.82
7935.7
7935.55
7935.36
7935.13
7934.87
7934.57
7934.24
7933.88
7933.48
7933.06
7932.61
7932.13
7931.62
7931.09
7930.53
7929.95
7929.35
7928.73
7928.09
7927.44
7926.76
7926.07
7925.37
7924.66
7923.94
7923.2
7922.46
7921.71
7920.95
7920.19
7919.42
7918.66
7917.88
7917.11
7916.33
7915.56
7914.79
7914.02
7913.25
7912.48
7911.72
7910.96
7910.21
7909.45
7908.71
7907.97
7907.23
7906.5
7905.77
7905.05
7904.34
7903.63
7902.92
7902.23
7901.53
7900.84
7900.16
7899.48
7898.8
7898.14
7897.47
7896.81
7896.14
7895.49
7894.83
7894.19
7893.54
7892.9
7892.25
7891.61
7890.97
7890.33
7889.69
7889.05
7888.41
7887.77
7887.13
7886.49
7885.85
7885.2
7884.55
7883.88
7883.24
7882.58
7881.93
7881.3
7880.64
7879.98
7879.31
7878.64
7877.95
7877.27
7876.57
7875.88
7875.16
7874.46
7873.73
7873.02
7872.28
7871.56
7870.82
7870.08
7869.35
7868.6
7867.86
7867.11
7866.37
7865.62
7864.87
7864.12
7863.39
7862.64
7861.9
7861.15
7860.43
7859.66
7858.97
7858.27
7857.57
7856.87
7856.13
7855.45
7854.42
7853.91
7853.44
7852.89
7852.33
7851.77
7851.2
7850.66
7850.14
7849.62
7849.1
7848.59
7848.08
7847.58
7847.07
7846.57
7846.07
7845.57
7845.07
7844.57
7844.07
7843.58
7843.09
7842.59
7842.1
7841.61
7841.13
7840.64
7840.16
7839.68
7839.19
7838.71
7838.23
7837.75
7837.27
7836.79
7836.3
7835.81
7835.32
7834.82
7834.32
7833.81
7833.3
7832.77
7832.24
7831.7
7831.15
7830.58
7830.01
7829.42
7828.81
7828.19
7827.56
7826.9
7826.23
7825.54
7824.83
7824.1
7823.35
7822.58
7821.78
7820.96
7820.11
7819.25
7818.35
7817.43
7816.48
7815.51
7814.51
7813.48
7812.42
7811.33
7810.22
7809.08
7807.9
7806.7
7805.47
7804.21
7802.92
7801.6
7800.24
7798.86
7797.45
7796.01
7794.54
7793.04
7791.5
7789.94
7788.35
7786.7
7784.84
8050.01
8050.08
8048.76
8047.54
8046.72
8046.04
8045.35
8044.75
8044.2
8043.66
8043.09
8042.7
8043.25
8043.38
8043.51
8043.68
8043.94
8044.33
8044.94
8045.81
8046.95
8048.34
8049.9
8051.59
8053.3
8054.91
8056.34
8057.92
8059.62
8061.48
8063.3
8065.28
8067.42
8069.72
8072.14
8074.54
8076.67
8079.14
8081.82
8084.63
8087.03
8089.37
8091.69
8093.77
8095.99
8098.52
8100.95
8103.24
8105.48
8107.44
8109.44
8111.84
8114.18
8116.3
8118.35
8120.35
8122.28
8124.11
8125.96
8127.76
8129.46
8131.04
8132.52
8133.79
8134.62
8135.81
8136.95
8138.2
8139.52
8140.52
8141.35
8142.06
8142.64
8143.01
8143.36
8143.65
8143.86
8143.92
8143.86
8143.63
8143.09
8142.42
8141.86
8141.17
8140.47
8139.7
8138.67
8137.49
8136.51
8136.48
8136.46
8131.84
8122.53
8126.15
8122.53
8120.61
8117.99
8114.9
8110.66
8107.85
8103.87
8099.98
8095.92
8091.36
8086.62
8081.79
8075.72
8070.27
8063.99
8058.54
8052.8
8050.24
8042.18
8028.88
8019.19
8009.31
7999.62
7990.04
7979.67
7968.41
7956.89
7945.2
7933.3
7920.88
7908.09
7895.28
7882.39
7869.12
7858.79
7844.7
7826.65
7812.17
7797.68
7783.38
7769.28
7755.36
7741.34
7727.25
7713.55
7700.26
7687.11
7674.17
7661.53
7649.15
7636.94
7625.22
7613.89
7603.05
7592.58
7582.29
7572.32
7562.87
7553.84
7545.28
7536.99
7528.98
7521.25
7513.97
7507.03
7500.48
7494.27
7488.26
7482.42
7476.88
7471.64
7466.64
7461.97
7457.43
7452.98
7448.78
7444.87
7441.25
7437.9
7434.73
7431.8
7429.09
7426.75
7424.78
7423.23
7421.88
7420.84
7420.12
7419.72
7419.57
7419.79
7420.38
7421.3
7422.64
7424.24
7426.1
7428.26
7430.68
7433.33
7436.34
7439.69
7443.27
7447.07
7451.08
7455.28
7459.75
7464.45
7469.39
7474.54
7479.81
7485.23
7490.78
7496.43
7502.26
7508.25
7514.38
7520.66
7526.95
7533.31
7539.72
7546.15
7552.7
7559.3
7566.02
7572.71
7579.38
7586.02
7592.73
7599.44
7606.21
7612.9
7619.56
7626.17
7632.71
7639.27
7645.79
7652.28
7658.75
7665.21
7671.55
7677.82
7684.02
7690.13
7696.14
7702.15
7708.1
7714.04
7719.83
7725.53
7731.13
7736.63
7742.11
7747.51
7752.86
7758.14
7763.28
7768.33
7773.26
7778.13
7782.94
7787.7
7792.37
7796.93
7801.36
7805.7
7810
7814.22
7818.38
7822.41
7826.35
7830.21
7833.97
7837.64
7841.21
7844.74
7848.18
7851.51
7854.73
7857.89
7860.97
7863.99
7866.9
7869.72
7872.45
7875.07
7877.64
7880.13
7882.56
7884.91
7887.17
7889.34
7891.42
7893.42
7895.37
7897.25
7899.1
7900.85
7902.53
7904.14
7905.68
7907.17
7908.62
7910.02
7911.37
7912.66
7913.9
7915.08
7916.25
7917.4
7918.48
7919.53
7920.56
7921.57
7922.57
7923.53
7924.45
7925.34
7926.21
7927.06
7927.87
7928.63
7929.36
7930.07
7930.75
7931.38
7931.98
7932.53
7933.04
7933.52
7933.96
7934.37
7934.73
7935.05
7935.33
7935.56
7935.75
7935.91
7936.04
7936.12
7936.16
7936.15
7936.11
7936.03
7935.92
7935.77
7935.58
7935.35
7935.08
7934.78
7934.44
7934.08
7933.68
7933.27
7932.81
7932.33
7931.82
7931.28
7930.72
7930.13
7929.53
7928.91
7928.27
7927.61
7926.93
7926.23
7925.53
7924.81
7924.08
7923.35
7922.6
7921.84
7921.08
7920.32
7919.55
7918.77
7918
7917.22
7916.44
7915.66
7914.89
7914.11
7913.34
7912.57
7911.8
7911.04
7910.28
7909.53
7908.78
7908.03
7907.29
7906.56
7905.83
7905.11
7904.4
7903.69
7902.98
7902.28
7901.59
7900.9
7900.22
7899.53
7898.86
7898.19
7897.53
7896.86
7896.2
7895.54
7894.89
7894.24
7893.6
7892.96
7892.32
7891.67
7891.03
7890.38
7889.75
7889.11
7888.48
7887.84
7887.2
7886.56
7885.89
7885.25
7884.6
7883.97
7883.35
7882.71
7882.07
7881.41
7880.75
7880.08
7879.41
7878.73
7878.04
7877.34
7876.65
7875.94
7875.23
7874.51
7873.79
7873.06
7872.33
7871.59
7870.86
7870.11
7869.37
7868.62
7867.88
7867.12
7866.37
7865.62
7864.86
7864.12
7863.36
7862.62
7861.84
7861.13
7860.41
7859.7
7859.01
7858.24
7857.55
7856.48
7855.93
7855.44
7854.87
7854.28
7853.68
7853.08
7852.5
7851.94
7851.38
7850.82
7850.27
7849.73
7849.2
7848.67
7848.15
7847.63
7847.11
7846.6
7846.09
7845.58
7845.07
7844.57
7844.07
7843.57
7843.08
7842.58
7842.09
7841.6
7841.12
7840.63
7840.15
7839.67
7839.2
7838.72
7838.24
7837.77
7837.29
7836.81
7836.33
7835.85
7835.37
7834.88
7834.38
7833.88
7833.38
7832.86
7832.34
7831.81
7831.26
7830.71
7830.14
7829.56
7828.97
7828.36
7827.73
7827.08
7826.42
7825.74
7825.04
7824.31
7823.57
7822.8
7822.01
7821.2
7820.36
7819.5
7818.61
7817.69
7816.75
7815.78
7814.78
7813.75
7812.7
7811.62
7810.51
7809.36
7808.19
7806.99
7805.76
7804.5
7803.21
7801.89
7800.54
7799.16
7797.75
7796.31
7794.84
7793.33
7791.8
7790.24
7788.65
7787
7785.14
8047.97
8048.14
8046.77
8045.51
8044.63
8043.92
8043.19
8042.55
8042
8041.56
8041.22
8041.06
8041.29
8041.5
8041.75
8042.09
8042.54
8043.14
8043.93
8044.91
8046.09
8047.44
8048.94
8050.53
8052.12
8053.59
8055.21
8056.97
8059.06
8060.97
8062.93
8065
8067.19
8069.45
8071.56
8073.7
8076.25
8078.91
8081.9
8084.54
8086.84
8089.26
8091.65
8094
8096.36
8098.76
8101.13
8103.46
8105.76
8107.93
8110.04
8112.37
8114.65
8116.79
8118.88
8120.93
8122.93
8124.88
8126.75
8128.55
8130.26
8131.89
8133.43
8134.85
8135.77
8136.7
8137.84
8139.11
8140.54
8141.54
8142.35
8143.05
8143.62
8144.08
8144.39
8144.25
8144.41
8144.65
8144.63
8144.4
8143.97
8143.11
8142.58
8142.07
8141.27
8140.24
8139.1
8137.88
8136.5
8134.75
8132.83
8131.15
8130.75
8130.77
8125.68
8115.23
8118.64
8114.19
8111.06
8107.58
8103.72
8098.55
8094.73
8089.32
8084.48
8079.37
8074.14
8068.41
8062.8
8056.52
8049.5
8042.22
8035.56
8028.82
8025.2
8016.07
8001.02
7990.08
7979.14
7968.06
7957.16
7945.46
7932.93
7920.15
7907.48
7894.76
7881.7
7867.92
7854.07
7840.3
7826.53
7816.11
7801.76
7783.7
7768.88
7754.31
7740.67
7726.7
7713.25
7699.81
7686.37
7673.25
7660.48
7647.91
7635.5
7623.64
7612.23
7601.33
7590.67
7580.23
7570.12
7560.54
7551.49
7542.82
7534.41
7526.34
7518.55
7511.09
7504.08
7497.54
7491.23
7485.15
7479.28
7473.62
7468.34
7463.38
7458.68
7454.1
7449.71
7445.46
7441.53
7438.02
7434.65
7431.5
7428.59
7425.89
7423.57
7421.74
7420.16
7418.83
7417.81
7417.12
7416.77
7416.75
7416.97
7417.56
7418.53
7419.83
7421.58
7423.53
7425.76
7428.28
7431.09
7434.16
7437.42
7440.96
7444.84
7449.05
7453.4
7457.91
7462.79
7467.8
7472.96
7478.3
7483.75
7489.32
7495.11
7501.05
7507.16
7513.42
7519.69
7526.04
7532.47
7538.92
7545.42
7552.04
7558.72
7565.51
7572.24
7578.96
7585.65
7592.41
7599.17
7605.99
7612.73
7619.44
7626.12
7632.74
7639.27
7645.82
7652.34
7658.83
7665.34
7671.71
7678.01
7684.25
7690.4
7696.43
7702.43
7708.48
7714.39
7720.2
7725.88
7731.47
7737.04
7742.53
7748.02
7753.37
7758.61
7763.76
7768.8
7773.73
7778.64
7783.47
7788.27
7792.92
7797.47
7801.9
7806.26
7810.57
7814.83
7818.96
7823
7826.93
7830.76
7834.53
7838.25
7841.86
7845.37
7848.79
7852.09
7855.32
7858.48
7861.59
7864.59
7867.49
7870.31
7873.04
7875.66
7878.21
7880.69
7883.13
7885.48
7887.73
7889.89
7891.96
7893.95
7895.9
7897.81
7899.62
7901.36
7903.03
7904.61
7906.14
7907.65
7909.11
7910.49
7911.82
7913.1
7914.33
7915.51
7916.68
7917.81
7918.9
7919.94
7920.95
7921.96
7922.95
7923.89
7924.79
7925.67
7926.54
7927.38
7928.17
7928.93
7929.65
7930.36
7931.03
7931.66
7932.25
7932.8
7933.31
7933.79
7934.23
7934.63
7934.99
7935.31
7935.59
7935.83
7936.02
7936.18
7936.31
7936.39
7936.43
7936.42
7936.38
7936.31
7936.2
7936.04
7935.85
7935.62
7935.35
7935.04
7934.71
7934.34
7933.95
7933.53
7933.07
7932.58
7932.07
7931.53
7930.96
7930.37
7929.76
7929.14
7928.49
7927.82
7927.13
7926.44
7925.73
7925
7924.27
7923.52
7922.77
7922.01
7921.24
7920.47
7919.7
7918.92
7918.14
7917.36
7916.57
7915.79
7915.01
7914.23
7913.45
7912.68
7911.91
7911.14
7910.38
7909.62
7908.87
7908.12
7907.37
7906.63
7905.91
7905.19
7904.47
7903.76
7903.05
7902.35
7901.66
7900.97
7900.28
7899.6
7898.93
7898.26
7897.6
7896.93
7896.27
7895.61
7894.96
7894.32
7893.67
7893.03
7892.38
7891.75
7891.11
7890.47
7889.84
7889.21
7888.57
7887.9
7887.27
7886.62
7885.99
7885.4
7884.77
7884.15
7883.5
7882.86
7882.2
7881.54
7880.87
7880.2
7879.51
7878.83
7878.13
7877.44
7876.72
7876.02
7875.29
7874.58
7873.85
7873.12
7872.38
7871.65
7870.9
7870.16
7869.4
7868.65
7867.9
7867.14
7866.38
7865.61
7864.86
7864.06
7863.34
7862.59
7861.87
7861.07
7860.36
7859.25
7858.7
7858.2
7857.63
7857
7856.36
7855.72
7855.08
7854.46
7853.86
7853.26
7852.67
7852.09
7851.52
7850.95
7850.39
7849.84
7849.29
7848.75
7848.21
7847.68
7847.15
7846.62
7846.1
7845.59
7845.07
7844.57
7844.06
7843.56
7843.06
7842.56
7842.07
7841.59
7841.1
7840.62
7840.14
7839.67
7839.19
7838.72
7838.25
7837.78
7837.31
7836.85
7836.37
7835.9
7835.43
7834.95
7834.46
7833.97
7833.48
7832.98
7832.46
7831.94
7831.41
7830.87
7830.31
7829.74
7829.16
7828.56
7827.94
7827.31
7826.66
7825.99
7825.3
7824.58
7823.85
7823.09
7822.31
7821.5
7820.67
7819.81
7818.93
7818.02
7817.08
7816.12
7815.12
7814.1
7813.05
7811.97
7810.86
7809.72
7808.55
7807.36
7806.13
7804.87
7803.58
7802.26
7800.91
7799.53
7798.12
7796.68
7795.21
7793.71
7792.17
7790.61
7789.02
7787.38
7785.5
8045.58
8045.83
8044.44
8043.16
8042.24
8041.5
8040.76
8040.14
8039.62
8039.27
8039.05
8038.95
8039.09
8039.39
8039.76
8040.23
8040.83
8041.58
8042.48
8043.55
8044.77
8046.14
8047.63
8049.22
8050.86
8052.4
8053.99
8056.12
8058.22
8060.24
8062.32
8064.49
8066.55
8068.37
8070.73
8073.27
8075.99
8079.05
8081.76
8084.24
8086.68
8089.14
8091.6
8094.05
8096.48
8098.9
8101.31
8103.71
8106.08
8108.42
8110.69
8112.85
8115.08
8117.33
8119.51
8121.62
8123.68
8125.68
8127.61
8129.46
8131.22
8132.91
8134.51
8136.01
8137.35
8138.07
8138.95
8140.35
8141.81
8142.8
8143.59
8144.28
8144.86
8145.3
8145.46
8145.32
8145.37
8145.64
8145.68
8145.45
8145.04
8144.47
8143.78
8142.94
8141.95
8140.64
8139.19
8137.96
8136.77
8135.2
8133.35
8131.39
8129.35
8127.12
8124.88
8123.98
8123.28
8117.27
8105.33
8108.2
8102.88
8098.88
8094.5
8089.08
8082.94
8078.42
8072.49
8066.65
8060.57
8054.21
8047.45
8040.66
8033.49
8025.44
8017.01
8009.08
8001.04
7996.19
7985.97
7969.27
7956.88
7944.7
7932.28
7920.36
7907.63
7894.18
7880.62
7867.04
7853.43
7839.34
7824.82
7810.83
7796.34
7782.75
7769.33
7758
7743.92
7726.47
7712.16
7698.86
7685.39
7672.26
7659.25
7646.29
7633.6
7621.61
7610.16
7599.06
7588.17
7577.66
7567.34
7557.61
7548.47
7539.62
7531.07
7522.9
7515.04
7507.45
7500.41
7493.74
7487.28
7481.13
7475.25
7469.57
7464.22
7459.25
7454.45
7449.86
7445.49
7441.3
7437.46
7433.91
7430.54
7427.42
7424.5
7421.88
7419.68
7417.93
7416.33
7415.04
7414.02
7413.27
7412.96
7413.19
7413.6
7414.3
7415.22
7416.5
7418.17
7420.32
7422.71
7425.32
7428.22
7431.37
7434.69
7438.34
7442.31
7446.52
7451
7455.83
7460.73
7465.8
7471.05
7476.45
7481.94
7487.65
7493.56
7499.64
7505.9
7512.15
7518.5
7524.93
7531.47
7538.05
7544.64
7551.25
7557.99
7564.78
7571.67
7578.49
7585.3
7592.08
7598.91
7605.73
7612.46
7619.17
7625.98
7632.73
7639.39
7645.93
7652.41
7658.92
7665.45
7671.91
7678.25
7684.52
7690.68
7696.73
7702.78
7708.88
7714.8
7720.63
7726.36
7731.96
7737.52
7743.08
7748.57
7753.92
7759.18
7764.35
7769.39
7774.33
7779.25
7784.13
7788.92
7793.58
7798.15
7802.59
7806.94
7811.28
7815.53
7819.67
7823.7
7827.6
7831.44
7835.23
7838.97
7842.59
7846.1
7849.51
7852.81
7856.04
7859.21
7862.32
7865.32
7868.22
7871.03
7873.75
7876.38
7878.91
7881.43
7883.84
7886.17
7888.41
7890.57
7892.65
7894.61
7896.57
7898.46
7900.26
7901.99
7903.65
7905.23
7906.74
7908.24
7909.69
7911.07
7912.39
7913.65
7914.88
7916.07
7917.22
7918.33
7919.39
7920.43
7921.46
7922.45
7923.41
7924.33
7925.23
7926.1
7926.95
7927.76
7928.54
7929.3
7930.03
7930.72
7931.38
7932
7932.58
7933.13
7933.65
7934.13
7934.56
7934.96
7935.32
7935.63
7935.92
7936.16
7936.36
7936.52
7936.64
7936.72
7936.76
7936.76
7936.72
7936.65
7936.53
7936.37
7936.18
7935.94
7935.68
7935.38
7935.04
7934.67
7934.27
7933.84
7933.38
7932.89
7932.37
7931.83
7931.26
7930.66
7930.04
7929.41
7928.76
7928.08
7927.39
7926.68
7925.97
7925.23
7924.49
7923.73
7922.97
7922.21
7921.44
7920.66
7919.88
7919.09
7918.3
7917.52
7916.73
7915.94
7915.15
7914.37
7913.58
7912.8
7912.03
7911.26
7910.49
7909.73
7908.97
7908.22
7907.47
7906.73
7906
7905.28
7904.56
7903.84
7903.14
7902.44
7901.74
7901.05