/*--------------------------------*- C++ -*----------------------------------*\
| =========                 |                                                 |
| \\      /  F ield         | OpenFOAM: The Open Source CFD Toolbox           |
|  \\    /   O peration     | Version:  v2006                                 |
|   \\  /    A nd           | Website:  www.openfoam.com                      |
|    \\/     M anipulation  |                                                 |
\*---------------------------------------------------------------------------*/
FoamFile
{
    version     2.0;
    format      ascii;
    class       volVectorField;
    location    "9.3";
    object      U;
}
// * * * * * * * * * * * * * * * * * * * * * * * * * * * * * * * * * * * * * //

dimensions      [0 1 -1 0 0 0 0];


internalField   nonuniform List<vector> 
33000
(
(-0.0903507 0 0.0147304)
(-0.115485 0 0.00835287)
(-0.115492 0 0.00625986)
(-0.125755 0 -0.00235132)
(-0.120258 0 -0.0144695)
(-0.109062 0 -0.0166886)
(-0.089914 0 -0.0191208)
(-0.0746749 0 -0.0190892)
(-0.0556933 0 -0.0187537)
(-0.0376667 0 -0.0194883)
(-0.0194965 0 -0.0169931)
(-0.00508924 0 -0.0138863)
(0.00696705 0 -0.0111218)
(0.0170237 0 -0.00925441)
(0.0267229 0 -0.00734998)
(0.0361242 0 -0.0061957)
(0.046074 0 -0.0073283)
(0.0577577 0 -0.00709487)
(0.0680792 0 -0.00395581)
(0.0740148 0 -0.000598249)
(0.0770372 0 0.00159929)
(0.077632 0 0.00421802)
(0.0751984 0 0.00750865)
(0.0665864 0 0.0124722)
(0.0546228 0 0.012101)
(0.0468151 0 0.00510967)
(0.0443458 0 -0.000347702)
(0.0463399 0 -0.0030469)
(0.0520479 0 -0.0059609)
(0.0596988 0 -0.00496977)
(0.0655392 0 -0.00189158)
(0.0682304 0 0.000141654)
(0.0690556 0 0.0018793)
(0.0676488 0 0.00401291)
(0.0641096 0 0.010286)
(0.0531186 0 0.0164309)
(0.0398703 0 0.0121626)
(0.032121 0 0.00675501)
(0.025103 0 0.0051112)
(0.0187859 0 0.00326277)
(0.0166194 0 -0.000294162)
(0.017465 0 -0.00148547)
(0.0186337 0 -0.00105415)
(0.0188378 0 0.00163836)
(0.0159674 0 0.00289376)
(0.0143298 0 0.000230148)
(0.0156352 0 -0.00207598)
(0.0182875 0 -0.00249649)
(0.0210405 0 -0.00142296)
(0.0214105 0 0.00144788)
(0.020584 0 0.0015343)
(0.0202478 0 -0.000656883)
(0.0223167 0 -0.00248795)
(0.0257175 0 -0.00291486)
(0.0298248 0 -0.00317536)
(0.0341105 0 -0.00351702)
(0.038614 0 -0.00378859)
(0.0427838 0 -0.00370494)
(0.0463136 0 -0.00313865)
(0.0485832 0 -0.00130525)
(0.0485349 0 0.00098749)
(0.0474813 0 0.00250731)
(0.0460985 0 0.001952)
(0.0450857 0 0.00082051)
(0.0449024 0 -4.90935e-06)
(0.0450171 0 -0.000704278)
(0.0459204 0 -0.00147529)
(0.0479432 0 -0.00285971)
(0.0515298 0 -0.00409204)
(0.0560047 0 -0.00470202)
(0.0608545 0 -0.00488558)
(0.0656615 0 -0.00485523)
(0.0694535 0 -0.00506155)
(0.0731967 0 -0.00481242)
(0.0754075 0 -0.00448346)
(0.0777374 0 -0.00295294)
(0.0821637 0 0.00195969)
(0.0785208 0 0.0125576)
(0.0579577 0 0.011747)
(0.0579592 0 0.00603256)
(0.0482091 0 0.00172729)
(0.0491934 0 -0.00493017)
(0.0478024 0 -0.000589683)
(0.0461494 0 -0.000254353)
(0.046949 0 0.00118145)
(0.0470647 0 0.000757477)
(0.0459177 0 0.000389299)
(0.0458872 0 -0.00108499)
(0.0462555 0 -0.00169656)
(0.0467524 0 -0.00104665)
(0.0471751 0 -0.00111237)
(0.0479044 0 -0.000428267)
(0.048559 0 -0.000430798)
(0.0489641 0 -0.000203844)
(0.0497907 0 -0.000608326)
(0.0502639 0 -0.00162575)
(0.0528128 0 -0.00170581)
(0.0522921 0 -0.00198727)
(0.055971 0 0.00183552)
(0.0490342 0 0.00378866)
(0.0486452 0 0.00259974)
(0.0463733 0 -0.000602506)
(0.0473926 0 -0.00340841)
(0.0478716 0 -0.00179366)
(0.0480995 0 -0.000832025)
(0.049273 0 -0.000158935)
(0.050345 0 -4.72759e-05)
(0.0508297 0 0.000148547)
(0.0512939 0 -0.000167063)
(0.0517641 0 -0.00046171)
(0.0521851 0 -0.000385214)
(0.0522862 0 -0.000219271)
(0.052449 0 0.000153219)
(0.0520644 0 0.000428495)
(0.0519924 0 0.00111999)
(0.0500881 0 0.00152156)
(0.0505366 0 0.00366949)
(0.0439954 0 0.00360283)
(0.043244 0 0.00125925)
(0.0413932 0 -0.0018033)
(0.0422086 0 -0.00276626)
(0.0424395 0 -0.00106479)
(0.0426242 0 -6.52306e-05)
(0.0434099 0 0.000328635)
(0.0437982 0 0.000232957)
(0.0438131 0 -6.32519e-05)
(0.0438715 0 -0.000213181)
(0.0438791 0 -8.72463e-05)
(0.0438062 0 5.67239e-05)
(0.043731 0 0.000126422)
(0.0435409 0 0.000237994)
(0.0432221 0 0.00026938)
(0.0428757 0 0.000292774)
(0.0424979 0 0.000317626)
(0.0420515 0 0.000380479)
(0.041533 0 0.00043128)
(0.040942 0 0.000474944)
(0.0403069 0 0.000512831)
(0.039627 0 0.000549035)
(0.0388913 0 0.000618093)
(0.038067 0 0.000675843)
(0.037175 0 0.000732013)
(0.0362213 0 0.000761344)
(0.0352332 0 0.000778277)
(0.0342298 0 0.000802435)
(0.0331648 0 0.00085366)
(0.0320346 0 0.000919044)
(0.0308015 0 0.0010074)
(0.0295058 0 0.00101343)
(0.0282331 0 0.00100716)
(0.0269291 0 0.00103754)
(0.0255667 0 0.00108956)
(0.02413 0 0.00115141)
(0.0226454 0 0.00119077)
(0.0211329 0 0.00120835)
(0.0195995 0 0.00120729)
(0.0180538 0 0.00122456)
(0.0164671 0 0.00125156)
(0.0148587 0 0.00127075)
(0.0132345 0 0.00128428)
(0.011609 0 0.00128841)
(0.00998272 0 0.00128239)
(0.0083682 0 0.00127641)
(0.00675328 0 0.00127954)
(0.00512709 0 0.00127231)
(0.00353412 0 0.00123087)
(0.00200631 0 0.00118854)
(0.000521061 0 0.00115991)
(-0.000943049 0 0.00114724)
(-0.00239448 0 0.00112874)
(-0.00379922 0 0.00107212)
(-0.00512111 0 0.00101099)
(-0.00638502 0 0.000974142)
(-0.00761168 0 0.000947064)
(-0.0088056 0 0.000939993)
(-0.00999556 0 0.000933101)
(-0.0111623 0 0.000900133)
(-0.0122755 0 0.000852783)
(-0.01334 0 0.000808263)
(-0.0143464 0 0.00076627)
(-0.0153027 0 0.000740885)
(-0.0162334 0 0.000719953)
(-0.0171307 0 0.000696988)
(-0.0180041 0 0.00068159)
(-0.0188609 0 0.000657572)
(-0.0196809 0 0.000620241)
(-0.0204492 0 0.000580902)
(-0.0211703 0 0.000553277)
(-0.0218622 0 0.000539752)
(-0.0225346 0 0.00052354)
(-0.023182 0 0.000500088)
(-0.0237984 0 0.000469368)
(-0.0243776 0 0.000434675)
(-0.0249146 0 0.000404258)
(-0.0254146 0 0.000378259)
(-0.0258819 0 0.000356422)
(-0.0263266 0 0.000345381)
(-0.0267593 0 0.000333985)
(-0.0271691 0 0.000313939)
(-0.02755 0 0.000285587)
(-0.027887 0 0.000246198)
(-0.0281814 0 0.000219828)
(-0.0284531 0 0.000203352)
(-0.0287065 0 0.000191029)
(-0.0289414 0 0.000176948)
(-0.0291538 0 0.000157952)
(-0.0293342 0 0.000127885)
(-0.0294803 0 0.00010439)
(-0.0296059 0 9.30752e-05)
(-0.0297237 0 9.30401e-05)
(-0.0298383 0 8.11403e-05)
(-0.0299164 0 4.17971e-05)
(-0.0299467 0 1.3139e-05)
(-0.0299561 0 -4.12684e-07)
(-0.0299506 0 -1.34745e-05)
(-0.0299279 0 -1.78039e-05)
(-0.029906 0 -1.26563e-05)
(-0.0298829 0 -2.29333e-05)
(-0.0298359 0 -4.97778e-05)
(-0.0297544 0 -7.95707e-05)
(-0.029642 0 -9.63353e-05)
(-0.0295153 0 -0.000106403)
(-0.0293771 0 -0.000112981)
(-0.029233 0 -0.000106932)
(-0.0290971 0 -0.00010564)
(-0.0289503 0 -0.000120827)
(-0.0287833 0 -0.000142153)
(-0.0285928 0 -0.000160796)
(-0.028381 0 -0.00017165)
(-0.0281617 0 -0.000177387)
(-0.0279371 0 -0.000170422)
(-0.0277278 0 -0.000159493)
(-0.02752 0 -0.000169059)
(-0.0272894 0 -0.000186314)
(-0.0270442 0 -0.000200054)
(-0.0267808 0 -0.000210044)
(-0.0265121 0 -0.000209681)
(-0.0262449 0 -0.00020872)
(-0.0259776 0 -0.000211674)
(-0.0257086 0 -0.000216308)
(-0.025439 0 -0.000212157)
(-0.0251754 0 -0.000204889)
(-0.0249119 0 -0.000204886)
(-0.0246369 0 -0.000221323)
(-0.0243441 0 -0.00023632)
(-0.0240438 0 -0.000236971)
(-0.0237475 0 -0.000235054)
(-0.0234537 0 -0.000218628)
(-0.0231893 0 -0.000202207)
(-0.0229198 0 -0.000225139)
(-0.0226165 0 -0.000243458)
(-0.0223078 0 -0.000242951)
(-0.0220026 0 -0.00024212)
(-0.0216976 0 -0.000236799)
(-0.0214036 0 -0.000224731)
(-0.0211188 0 -0.000225035)
(-0.0208202 0 -0.000236286)
(-0.0205132 0 -0.00024475)
(-0.020199 0 -0.000249283)
(-0.0198855 0 -0.000248388)
(-0.0195766 0 -0.000244922)
(-0.0192645 0 -0.000243109)
(-0.0189503 0 -0.000247757)
(-0.0186258 0 -0.000259742)
(-0.0182903 0 -0.000267661)
(-0.01795 0 -0.000266666)
(-0.0176186 0 -0.000254816)
(-0.0173015 0 -0.000247428)
(-0.0169785 0 -0.000261663)
(-0.0166316 0 -0.000279365)
(-0.0162713 0 -0.000285363)
(-0.015909 0 -0.00028818)
(-0.0155426 0 -0.000292644)
(-0.0151694 0 -0.000292796)
(-0.0148002 0 -0.000282592)
(-0.0144405 0 -0.000282509)
(-0.0140699 0 -0.000297451)
(-0.0136832 0 -0.000312034)
(-0.0132825 0 -0.000319048)
(-0.0128752 0 -0.000323709)
(-0.0124604 0 -0.000330536)
(-0.0120361 0 -0.000337628)
(-0.0116045 0 -0.000336148)
(-0.011182 0 -0.000329257)
(-0.0107593 0 -0.000341271)
(-0.0103106 0 -0.000358871)
(-0.00984916 0 -0.00036645)
(-0.00938061 0 -0.000371558)
(-0.00890658 0 -0.000377935)
(-0.00842158 0 -0.000384145)
(-0.0079324 0 -0.000382632)
(-0.00744573 0 -0.000384013)
(-0.00695005 0 -0.000392565)
(-0.00644349 0 -0.000403777)
(-0.0059247 0 -0.000411321)
(-0.00540157 0 -0.000416705)
(-0.00486967 0 -0.000419123)
(-0.00433851 0 -0.000414895)
(-0.00380923 0 -0.000415362)
(-0.00327678 0 -0.000420126)
(-0.00274236 0 -0.000424076)
(-0.00220477 0 -0.000426067)
(-0.00166463 0 -0.000424053)
(-0.00112983 0 -0.000416469)
(-0.00060418 0 -0.000410376)
(-8.41854e-05 0 -0.000407174)
(0.00043121 0 -0.000404382)
(0.000942078 0 -0.000397616)
(0.00144335 0 -0.00038922)
(0.00193485 0 -0.000382134)
(0.00241777 0 -0.000377034)
(0.00289448 0 -0.000371929)
(0.00336363 0 -0.000364639)
(0.00382291 0 -0.000355838)
(0.00427116 0 -0.000347542)
(0.0047093 0 -0.00034038)
(0.00513842 0 -0.000333808)
(0.00555903 0 -0.000326638)
(0.00597027 0 -0.000318842)
(0.0063715 0 -0.000310777)
(0.00676236 0 -0.000302566)
(0.0071426 0 -0.000294331)
(0.00751235 0 -0.000286181)
(0.00787174 0 -0.000277766)
(0.00822028 0 -0.000268925)
(0.00855766 0 -0.000260262)
(0.00888423 0 -0.000251936)
(0.00920005 0 -0.000243411)
(0.00950447 0 -0.000234169)
(0.009797 0 -0.000224736)
(0.010078 0 -0.000215849)
(0.0103479 0 -0.000207404)
(0.010607 0 -0.000198867)
(0.0108547 0 -0.000189659)
(0.0110904 0 -0.000179832)
(0.0113134 0 -0.000170061)
(0.0115243 0 -0.00016097)
(0.0117239 0 -0.000152281)
(0.0119125 0 -0.000143426)
(0.0120897 0 -0.000134308)
(0.0122553 0 -0.000125123)
(0.0124092 0 -0.000116003)
(0.0125514 0 -0.000106976)
(0.012682 0 -9.80238e-05)
(0.0128011 0 -8.90864e-05)
(0.0129089 0 -8.03294e-05)
(0.0130057 0 -7.16136e-05)
(0.0130914 0 -6.29141e-05)
(0.0131663 0 -5.43059e-05)
(0.0132302 0 -4.57453e-05)
(0.0132833 0 -3.72588e-05)
(0.0133256 0 -2.87909e-05)
(0.0133572 0 -2.06029e-05)
(0.0133785 0 -1.27575e-05)
(0.0133901 0 -5.12357e-06)
(0.013392 0 2.45942e-06)
(0.0133843 0 9.93293e-06)
(0.013367 0 1.74963e-05)
(0.0133401 0 2.46751e-05)
(0.0133043 0 3.16104e-05)
(0.0132597 0 3.83656e-05)
(0.0132068 0 4.50007e-05)
(0.0131454 0 5.13232e-05)
(0.0130764 0 5.7482e-05)
(0.0129993 0 6.39032e-05)
(0.012914 0 7.04854e-05)
(0.0128208 0 7.66493e-05)
(0.0127205 0 8.18105e-05)
(0.0126141 0 8.61753e-05)
(0.0125019 0 9.09048e-05)
(0.0123826 0 9.64968e-05)
(0.0122561 0 0.000101916)
(0.0121238 0 0.000106204)
(0.0119869 0 0.000109814)
(0.0118453 0 0.000113648)
(0.0116987 0 0.000117531)
(0.0115468 0 0.000121604)
(0.0113902 0 0.00012519)
(0.011229 0 0.000129961)
(0.0110624 0 0.000133953)
(0.0108915 0 0.000136349)
(0.0107185 0 0.000136757)
(0.0105436 0 0.000139709)
(0.010365 0 0.000142021)
(0.0101832 0 0.000145777)
(0.00999808 0 0.000147328)
(0.00981026 0 0.00015035)
(0.00961988 0 0.00015017)
(0.00942845 0 0.000152199)
(0.00923531 0 0.000152438)
(0.00903953 0 0.000155991)
(0.00884176 0 0.000155183)
(0.00864312 0 0.000156262)
(0.00844506 0 0.000154404)
(0.00824525 0 0.000156427)
(0.00804592 0 0.000154691)
(0.00784524 0 0.000156472)
(0.00764553 0 0.000156237)
(0.00744199 0 0.000157309)
(0.00724156 0 0.00015457)
(0.00703868 0 0.000153619)
(0.00684047 0 0.000152299)
(0.00664057 0 0.000149839)
(0.00644504 0 0.000150911)
(0.00624645 0 0.000149166)
(0.00604548 0 0.000155404)
(0.00584566 0 0.000143759)
(0.00564813 0 0.000150583)
(0.00545908 0 0.000139474)
(0.0052599 0 0.000159439)
(0.00507164 0 0.000145026)
(0.0048716 0 0.000165527)
(0.00468853 0 0.000137591)
(0.00450215 0 0.000152749)
(0.00431969 0 0.00012868)
(0.00414502 0 0.00015097)
(0.00396772 0 0.000143655)
(0.00380012 0 0.000157278)
(0.0036534 0 0.000125872)
(0.00348609 0 0.00011695)
(0.00331169 0 5.95847e-05)
(0.00318157 0 0.000109287)
(0.00298872 0 0.00018402)
(0.00286769 0 0.000227154)
(0.00287109 0 0.000172016)
(0.00270937 0 2.90695e-05)
(0.00251251 0 -0.000335838)
(0.00253711 0 -0.000191667)
(0.0019769 0 0.000331067)
(0.00157329 0 0.000703856)
(0.000568445 0 0.000814512)
(0.000316627 0 0.000380939)
(-0.000164752 0 0.000362544)
(-0.000354544 0 0.000220886)
(-0.000639079 0 0.000184145)
(-0.000788023 0 0.000167453)
(-0.00101903 0 0.000106614)
(-0.00115567 0 0.000169064)
(-0.00135145 0 9.80544e-05)
(-0.00144374 0 0.00016462)
(-0.00159795 0 8.9422e-05)
(-0.00166352 0 0.000109492)
(-0.00165419 0 -8.23747e-06)
(-0.00184181 0 1.43455e-05)
(-0.0019821 0 -0.000208411)
(-0.00192579 0 0.000110441)
(-0.00230285 0 0.000382233)
(-0.00242774 0 0.000386577)
(-0.00299436 0 0.000113795)
(-0.00263893 0 -0.000236236)
(-0.00272255 0 -2.89054e-05)
(-0.00260747 0 -9.00647e-05)
(-0.00268576 0 3.01889e-05)
(-0.00266516 0 -3.58406e-05)
(-0.00275909 0 5.67143e-05)
(-0.00277419 0 -3.41184e-05)
(-0.00287368 0 6.16004e-05)
(-0.00289361 0 -4.03754e-05)
(-0.00293366 0 9.11956e-05)
(-0.00300226 0 -4.67773e-05)
(-0.00298581 0 6.9675e-05)
(-0.00306926 0 -4.89916e-05)
(-0.00309689 0 0.000112569)
(-0.00294453 0 -6.52134e-05)
(-0.00298575 0 0.000115624)
(-0.00340746 0 -0.000513482)
(-0.00314036 0 -0.000220617)
(-0.00416884 0 0.000666577)
(-0.00488138 0 0.00166608)
(-0.00687724 0 0.00173079)
(-0.00680446 0 -5.52543e-05)
(-0.00671124 0 -0.000389537)
(-0.00588464 0 -0.000718912)
(-0.00544004 0 -0.000577348)
(-0.00486202 0 -0.000373882)
(-0.0046128 0 -0.000204317)
(-0.00442228 0 -0.000152641)
(-0.00429676 0 -0.00012947)
(-0.0041732 0 -0.000126203)
(-0.00408684 0 -6.74526e-05)
(-0.00405182 0 -2.18424e-05)
(-0.00402853 0 -1.56909e-05)
(-0.00400829 0 -1.32059e-05)
(-0.00398062 0 -2.95508e-05)
(-0.00393938 0 -3.33422e-05)
(-0.00391573 0 -7.96843e-06)
(-0.00391574 0 5.51141e-06)
(-0.00391367 0 -3.78563e-06)
(-0.00389641 0 -6.99316e-06)
(-0.00388338 0 -4.88678e-06)
(-0.00388016 0 -9.41937e-07)
(-0.00386828 0 -1.48398e-05)
(-0.00384031 0 -2.71396e-05)
(-0.00381272 0 -1.62218e-05)
(-0.00380426 0 5.58505e-06)
(-0.00380997 0 1.13446e-05)
(-0.00381821 0 9.11219e-06)
(-0.00382022 0 -9.94166e-07)
(-0.00381682 0 -9.95371e-07)
(-0.00381725 0 2.7603e-06)
(-0.00381709 0 -1.41334e-06)
(-0.00381517 0 4.30268e-06)
(-0.00382894 0 1.98983e-05)
(-0.00386366 0 3.46453e-05)
(-0.00390685 0 3.65952e-05)
(-0.00394329 0 2.55541e-05)
(-0.00396683 0 1.35656e-05)
(-0.00398114 0 7.69803e-06)
(-0.00399856 0 1.47956e-05)
(-0.00402513 0 2.47756e-05)
(-0.004065 0 3.98812e-05)
(-0.00411717 0 4.49914e-05)
(-0.00417265 0 4.92535e-05)
(-0.00423598 0 5.83675e-05)
(-0.00431174 0 6.11459e-05)
(-0.00439156 0 6.09964e-05)
(-0.0044724 0 6.52576e-05)
(-0.00456429 0 7.72811e-05)
(-0.00467372 0 9.38812e-05)
(-0.00480266 0 0.000112151)
(-0.00495101 0 0.000127764)
(-0.00511336 0 0.000137321)
(-0.00528547 0 0.00014317)
(-0.00546519 0 0.000146391)
(-0.00565033 0 0.00015063)
(-0.00584351 0 0.000157339)
(-0.00604718 0 0.000165981)
(-0.00626079 0 0.000175303)
(-0.00648584 0 0.000183847)
(-0.00672186 0 0.000191964)
(-0.00696731 0 0.000198897)
(-0.00722085 0 0.000205259)
(-0.00748215 0 0.000211544)
(-0.00775093 0 0.000218683)
(-0.0080352 0 0.000228192)
(-0.00832106 0 0.000235343)
(-0.00863388 0 0.000242826)
(-0.00891597 0 0.000243784)
(-0.00925493 0 0.000250377)
(-0.00953411 0 0.000256087)
(-0.00992394 0 0.00026268)
(-0.01018 0 0.000267666)
(-0.0104849 0 0.000271615)
(-0.0109665 0 0.000271744)
(-0.0112481 0 0.000265822)
(-0.0114235 0 0.00024479)
(-0.0122698 0 0.000230744)
(-0.0114262 0 0.000196357)
(-0.0136115 0 0.000172266)
(-0.0138371 0 0.000134622)
(-0.0788233 0 0.0194064)
(-0.103843 0 0.0132314)
(-0.0949776 0 0.0147926)
(-0.101065 0 0.00868332)
(-0.0959489 0 -0.00979909)
(-0.0904487 0 -0.0321982)
(-0.0734211 0 -0.0380405)
(-0.0634611 0 -0.0392266)
(-0.0488301 0 -0.0412511)
(-0.0363514 0 -0.0414012)
(-0.0247284 0 -0.0364348)
(-0.0156559 0 -0.0291432)
(-0.00893119 0 -0.0247568)
(-0.00158507 0 -0.0229258)
(0.00746155 0 -0.0244631)
(0.0187457 0 -0.0256338)
(0.0303463 0 -0.0287687)
(0.0411296 0 -0.0283651)
(0.0511317 0 -0.0216328)
(0.0592646 0 -0.0135597)
(0.0616572 0 -0.00846106)
(0.0584963 0 -0.00172848)
(0.0539768 0 0.00980033)
(0.0477333 0 0.0180388)
(0.0424361 0 0.0182374)
(0.0402682 0 0.01309)
(0.0424017 0 0.000569331)
(0.0484072 0 -0.00928188)
(0.0540943 0 -0.0149356)
(0.0594462 0 -0.0160587)
(0.0647311 0 -0.01082)
(0.0668604 0 -0.00636179)
(0.0649794 0 8.16366e-05)
(0.0594338 0 0.00495801)
(0.0532678 0 0.0112333)
(0.0457171 0 0.0208097)
(0.038464 0 0.0216865)
(0.0333364 0 0.0173187)
(0.0267415 0 0.0161095)
(0.0208411 0 0.0109022)
(0.0189952 0 0.0027213)
(0.0182444 0 -0.00127839)
(0.0185409 0 -0.00119482)
(0.0178772 0 0.00241148)
(0.017248 0 0.00387228)
(0.0169763 0 0.00105452)
(0.0169723 0 -0.00438819)
(0.0188372 0 -0.00557525)
(0.0206963 0 -0.00435246)
(0.0217531 0 -0.000115271)
(0.022933 0 0.000202737)
(0.0234029 0 -0.00186699)
(0.0241455 0 -0.00636552)
(0.0266939 0 -0.00893104)
(0.0302182 0 -0.0102749)
(0.0339715 0 -0.0105405)
(0.0372707 0 -0.01007)
(0.0397248 0 -0.00853519)
(0.0407925 0 -0.00574766)
(0.0419004 0 -0.00193419)
(0.0435495 0 0.000109372)
(0.0459778 0 0.00125264)
(0.0484567 0 0.00164465)
(0.049762 0 0.00108741)
(0.0495722 0 0.000333459)
(0.0487114 0 -0.000984354)
(0.0483096 0 -0.00318123)
(0.048744 0 -0.00609958)
(0.0506838 0 -0.00900231)
(0.0535865 0 -0.0106474)
(0.0563234 0 -0.0107684)
(0.0588064 0 -0.009247)
(0.0599002 0 -0.00739769)
(0.0602591 0 -0.00548341)
(0.0611936 0 -0.00419086)
(0.0629503 0 -0.0025088)
(0.0674523 0 0.000753469)
(0.0715648 0 0.0117513)
(0.0819199 0 0.0213236)
(0.0847218 0 0.0139648)
(0.0825889 0 0.0109314)
(0.0630356 0 0.00673549)
(0.0622055 0 0.00439478)
(0.0537162 0 0.00157158)
(0.0520365 0 -0.00299463)
(0.0497177 0 0.00154729)
(0.0474464 0 0.00129918)
(0.0455445 0 0.000743558)
(0.0470747 0 0.000224836)
(0.0482296 0 -0.000337569)
(0.0478748 0 -0.000813983)
(0.0486209 0 -0.00175484)
(0.0485837 0 -0.00124415)
(0.0487242 0 -0.00170055)
(0.0493152 0 -0.00165997)
(0.0501029 0 -0.00287862)
(0.0501013 0 -0.00233993)
(0.0509523 0 -0.00173828)
(0.050828 0 0.00193081)
(0.0554893 0 0.00605957)
(0.0552939 0 0.00351575)
(0.0603275 0 0.00260248)
(0.0533993 0 0.0017212)
(0.05276 0 0.000952711)
(0.0506577 0 -0.0017471)
(0.0503661 0 -0.00397901)
(0.0502215 0 -0.00234465)
(0.0501098 0 -0.00179091)
(0.050373 0 -0.00109776)
(0.0514765 0 -0.000882593)
(0.0526378 0 -0.000293635)
(0.0529451 0 -0.000197624)
(0.0532221 0 5.14896e-05)
(0.0532112 0 0.000429808)
(0.0532371 0 0.00130807)
(0.053329 0 0.00198365)
(0.0533644 0 0.00464668)
(0.0545556 0 0.00633682)
(0.0531752 0 0.00469354)
(0.0536978 0 0.00327114)
(0.0466782 0 0.00170439)
(0.045752 0 0.000697093)
(0.0436808 0 -0.00185473)
(0.0435069 0 -0.00256747)
(0.0432928 0 -0.000797348)
(0.0432951 0 -3.51051e-05)
(0.0439111 0 0.000170494)
(0.0441695 0 0.000257153)
(0.0440284 0 0.00015718)
(0.0438208 0 0.000249283)
(0.0435658 0 0.000569258)
(0.0432594 0 0.000780127)
(0.0429633 0 0.000846947)
(0.0425859 0 0.000984447)
(0.0421259 0 0.00113357)
(0.041578 0 0.00131405)
(0.0409638 0 0.00144586)
(0.0403172 0 0.00155338)
(0.0396203 0 0.00167194)
(0.038873 0 0.00183121)
(0.0380583 0 0.00202624)
(0.0371805 0 0.00216416)
(0.0362447 0 0.00229626)
(0.0352639 0 0.00234808)
(0.0342445 0 0.00244916)
(0.0331561 0 0.00259761)
(0.0319899 0 0.0027928)
(0.0307678 0 0.0029766)
(0.0295194 0 0.00302073)
(0.028246 0 0.00304049)
(0.0269209 0 0.00315562)
(0.0255249 0 0.00330933)
(0.024072 0 0.00344565)
(0.0226159 0 0.003516)
(0.0211437 0 0.00358346)
(0.0196275 0 0.00362924)
(0.0180581 0 0.00370378)
(0.016457 0 0.00377136)
(0.0148387 0 0.00381428)
(0.0132177 0 0.00382426)
(0.0116123 0 0.00382652)
(0.0100062 0 0.00381322)
(0.00840449 0 0.00380371)
(0.00679404 0 0.00381833)
(0.00518402 0 0.0037956)
(0.00360113 0 0.00367668)
(0.00206742 0 0.00355043)
(0.00058298 0 0.00347711)
(-0.000888478 0 0.00343923)
(-0.0023299 0 0.00336597)
(-0.00372521 0 0.00321659)
(-0.00507094 0 0.00305497)
(-0.00635675 0 0.00294463)
(-0.0076025 0 0.00285711)
(-0.00880666 0 0.00280803)
(-0.00998173 0 0.00277244)
(-0.0111341 0 0.00268368)
(-0.0122468 0 0.00257084)
(-0.0133237 0 0.00244978)
(-0.0143464 0 0.00231654)
(-0.0153151 0 0.00222641)
(-0.0162492 0 0.00215338)
(-0.0171478 0 0.00208402)
(-0.0180193 0 0.00203921)
(-0.0188721 0 0.00197899)
(-0.0196956 0 0.00187741)
(-0.0204783 0 0.00175999)
(-0.0212148 0 0.00166613)
(-0.0219076 0 0.00160489)
(-0.0225683 0 0.00155003)
(-0.0232017 0 0.00148651)
(-0.0238118 0 0.00141064)
(-0.0243959 0 0.00132002)
(-0.0249462 0 0.0012259)
(-0.0254554 0 0.00114254)
(-0.0259295 0 0.0010759)
(-0.0263773 0 0.00103407)
(-0.026801 0 0.000990434)
(-0.027201 0 0.000928006)
(-0.0275724 0 0.000844844)
(-0.0279099 0 0.000743525)
(-0.0282149 0 0.000671015)
(-0.0284934 0 0.000621096)
(-0.0287513 0 0.000577425)
(-0.0289838 0 0.000524769)
(-0.029186 0 0.000460855)
(-0.0293606 0 0.000383642)
(-0.0295139 0 0.000322634)
(-0.0296498 0 0.000289091)
(-0.0297705 0 0.00027107)
(-0.0298672 0 0.000225479)
(-0.0299357 0 0.000126014)
(-0.0299734 0 4.87586e-05)
(-0.0299886 0 7.35711e-06)
(-0.0299886 0 -3.13069e-05)
(-0.0299724 0 -5.41001e-05)
(-0.0299453 0 -5.65934e-05)
(-0.0299056 0 -8.79942e-05)
(-0.0298484 0 -0.000150677)
(-0.0297689 0 -0.000227355)
(-0.0296643 0 -0.000279448)
(-0.0295444 0 -0.000309467)
(-0.0294145 0 -0.000332696)
(-0.0292701 0 -0.000332441)
(-0.0291173 0 -0.000338628)
(-0.0289559 0 -0.000372691)
(-0.0287872 0 -0.000418638)
(-0.0286027 0 -0.000473086)
(-0.0283993 0 -0.000505141)
(-0.0281869 0 -0.000521308)
(-0.027968 0 -0.000512176)
(-0.0277501 0 -0.000494525)
(-0.0275294 0 -0.00052013)
(-0.0272937 0 -0.000561827)
(-0.0270423 0 -0.000599301)
(-0.0267805 0 -0.000627642)
(-0.0265143 0 -0.000632302)
(-0.0262453 0 -0.000631984)
(-0.0259811 0 -0.000630529)
(-0.0257232 0 -0.000630712)
(-0.0254627 0 -0.000625384)
(-0.0251938 0 -0.000623805)
(-0.0249099 0 -0.000641204)
(-0.0246186 0 -0.000670924)
(-0.0243302 0 -0.000696829)
(-0.0240421 0 -0.000699718)
(-0.0237559 0 -0.000693201)
(-0.0234737 0 -0.000659634)
(-0.0231908 0 -0.000634068)
(-0.022902 0 -0.000675957)
(-0.0226049 0 -0.000719384)
(-0.0223009 0 -0.000721586)
(-0.0220042 0 -0.000716489)
(-0.0217114 0 -0.000705492)
(-0.0214165 0 -0.000683852)
(-0.0211149 0 -0.000692052)
(-0.0208059 0 -0.000715752)
(-0.0204947 0 -0.0007314)
(-0.0201852 0 -0.000737636)
(-0.0198841 0 -0.000729389)
(-0.0195849 0 -0.000730646)
(-0.0192689 0 -0.000741835)
(-0.0189426 0 -0.000755376)
(-0.018615 0 -0.000778144)
(-0.0182858 0 -0.000794151)
(-0.0179531 0 -0.000789642)
(-0.0176255 0 -0.000763816)
(-0.0172987 0 -0.000758174)
(-0.0169649 0 -0.000790493)
(-0.0166196 0 -0.000833185)
(-0.0162634 0 -0.000849771)
(-0.0159055 0 -0.000857314)
(-0.0155447 0 -0.000869205)
(-0.0151824 0 -0.000874731)
(-0.0148109 0 -0.000862574)
(-0.0144336 0 -0.000865021)
(-0.0140519 0 -0.000892668)
(-0.0136669 0 -0.000925481)
(-0.0132753 0 -0.000950806)
(-0.0128727 0 -0.000968132)
(-0.0124623 0 -0.000988047)
(-0.0120393 0 -0.00100743)
(-0.0116138 0 -0.00100655)
(-0.0111862 0 -0.000998108)
(-0.0107522 0 -0.00102794)
(-0.0103049 0 -0.00107226)
(-0.00984545 0 -0.00109445)
(-0.00938093 0 -0.0011101)
(-0.00891244 0 -0.00112838)
(-0.00843494 0 -0.00114754)
(-0.00794647 0 -0.00115042)
(-0.00745296 0 -0.00115992)
(-0.00695027 0 -0.00118241)
(-0.00644173 0 -0.00120771)
(-0.00592934 0 -0.00122621)
(-0.00541355 0 -0.00124099)
(-0.00488936 0 -0.00125209)
(-0.00435814 0 -0.0012514)
(-0.00382128 0 -0.00125389)
(-0.00328576 0 -0.00125648)
(-0.00275571 0 -0.00126122)
(-0.00222607 0 -0.00126766)
(-0.00169257 0 -0.00126633)
(-0.00115834 0 -0.00125028)
(-0.000628872 0 -0.00123354)
(-0.000108743 0 -0.00121994)
(0.000403013 0 -0.00120909)
(0.000912987 0 -0.00119345)
(0.00141816 0 -0.0011715)
(0.001914 0 -0.00114952)
(0.00239871 0 -0.00113131)
(0.00287508 0 -0.00111468)
(0.00334478 0 -0.00109461)
(0.00380653 0 -0.00107039)
(0.00425855 0 -0.00104552)
(0.00469862 0 -0.00102244)
(0.00512808 0 -0.00100147)
(0.00554962 0 -0.0009805)
(0.00596259 0 -0.000957856)
(0.00636566 0 -0.000933855)
(0.00675824 0 -0.000909073)
(0.00713975 0 -0.000884122)
(0.00751062 0 -0.000859512)
(0.00787109 0 -0.000834598)
(0.00822106 0 -0.000808803)
(0.00856026 0 -0.000782934)
(0.00888842 0 -0.000757342)
(0.00920531 0 -0.000731123)
(0.00951051 0 -0.00070371)
(0.00980412 0 -0.000676326)
(0.0100864 0 -0.000649732)
(0.0103576 0 -0.000623817)
(0.0106174 0 -0.000597382)
(0.0108655 0 -0.00056984)
(0.0111017 0 -0.000540866)
(0.0113259 0 -0.000511615)
(0.0115379 0 -0.000483958)
(0.0117381 0 -0.00045779)
(0.011927 0 -0.000431369)
(0.0121048 0 -0.000404297)
(0.0122712 0 -0.000376814)
(0.0124258 0 -0.00034926)
(0.0125685 0 -0.000321725)
(0.0126993 0 -0.000294392)
(0.0128179 0 -0.000267319)
(0.0129251 0 -0.00024114)
(0.0130218 0 -0.000215265)
(0.0131076 0 -0.000189428)
(0.0131826 0 -0.000163734)
(0.0132466 0 -0.000138135)
(0.0132997 0 -0.000112658)
(0.013342 0 -8.72716e-05)
(0.0133735 0 -6.26096e-05)
(0.0133947 0 -3.90424e-05)
(0.0134061 0 -1.59849e-05)
(0.0134075 0 6.89608e-06)
(0.0133995 0 2.9434e-05)
(0.0133816 0 5.22036e-05)
(0.0133539 0 7.39693e-05)
(0.0133174 0 9.47292e-05)
(0.0132723 0 0.00011491)
(0.0132188 0 0.000134651)
(0.0131569 0 0.000153754)
(0.0130869 0 0.000172346)
(0.0130088 0 0.000191566)
(0.012923 0 0.000210331)
(0.01283 0 0.000227795)
(0.01273 0 0.000243064)
(0.0126231 0 0.000257283)
(0.01251 0 0.000272744)
(0.0123894 0 0.000289786)
(0.0122618 0 0.00030487)
(0.0121289 0 0.000316891)
(0.0119912 0 0.000327824)
(0.0118489 0 0.000339102)
(0.0117017 0 0.000351106)
(0.0115485 0 0.00036287)
(0.0113904 0 0.000373504)
(0.0112278 0 0.000384684)
(0.0110618 0 0.000396056)
(0.0108925 0 0.000404053)
(0.0107193 0 0.000409942)
(0.0105427 0 0.000416227)
(0.0103628 0 0.000424869)
(0.0101793 0 0.000431252)
(0.0099933 0 0.000439141)
(0.00980509 0 0.000444353)
(0.00961469 0 0.000450249)
(0.00942222 0 0.000452505)
(0.00922775 0 0.000459168)
(0.00903154 0 0.000462878)
(0.00883457 0 0.000468088)
(0.00863613 0 0.000467348)
(0.00843693 0 0.000470844)
(0.00823579 0 0.000470918)
(0.00803481 0 0.000473783)
(0.0078331 0 0.000472875)
(0.00763285 0 0.000477321)
(0.00743185 0 0.000478011)
(0.00723095 0 0.000479076)
(0.00702792 0 0.000477495)
(0.00682604 0 0.000473076)
(0.00662702 0 0.000472398)
(0.00642763 0 0.000467973)
(0.00623112 0 0.000479412)
(0.00603044 0 0.000474121)
(0.00583905 0 0.000481193)
(0.00563752 0 0.000456759)
(0.00545476 0 0.00047084)
(0.00524923 0 0.000449811)
(0.00506211 0 0.000464764)
(0.00486065 0 0.00043752)
(0.00467536 0 0.000441824)
(0.00448904 0 0.000428343)
(0.00430992 0 0.000431359)
(0.00415616 0 0.000403503)
(0.00396999 0 0.000397223)
(0.00378357 0 0.000337748)
(0.00361018 0 0.000365485)
(0.00341406 0 0.000422227)
(0.00328682 0 0.000416875)
(0.00328085 0 0.000400783)
(0.00311798 0 0.000309657)
(0.00289513 0 -4.18904e-05)
(0.00273687 0 7.27916e-05)
(0.00216731 0 0.000536222)
(0.00172056 0 0.000596152)
(0.000730032 0 0.00103831)
(0.000532277 0 0.00118194)
(7.4898e-05 0 0.00150939)
(0.000118984 0 0.0011668)
(-0.000166834 0 0.000767793)
(-0.000293819 0 0.000692704)
(-0.000534812 0 0.000526741)
(-0.000707575 0 0.000494486)
(-0.000896801 0 0.000432287)
(-0.00106061 0 0.000468523)
(-0.00121069 0 0.000355245)
(-0.00135133 0 0.000353872)
(-0.0013774 0 0.000222914)
(-0.00161081 0 0.000256846)
(-0.00180345 0 -2.26206e-05)
(-0.00189311 0 0.000287833)
(-0.00222076 0 0.000500456)
(-0.00232666 0 0.000342254)
(-0.0028448 0 0.000392439)
(-0.00241562 0 0.000411941)
(-0.00253552 0 0.000696455)
(-0.00225013 0 0.000212628)
(-0.00251631 0 -0.000184719)
(-0.00250675 0 -2.71691e-05)
(-0.00262178 0 3.5251e-05)
(-0.00268483 0 5.67319e-05)
(-0.00268344 0 0.000150852)
(-0.00276275 0 0.000115636)
(-0.00276178 0 0.000212292)
(-0.00287215 0 0.000131646)
(-0.00285329 0 0.000132831)
(-0.00296215 0 7.91002e-05)
(-0.00300419 0 0.000118297)
(-0.00287395 0 4.32477e-05)
(-0.00293922 0 0.000206467)
(-0.00327956 0 -0.000268014)
(-0.00347133 0 -9.8274e-05)
(-0.00425058 0 0.000589465)
(-0.0048678 0 0.000712121)
(-0.00611897 0 0.00131397)
(-0.00560513 0 0.00184758)
(-0.00596247 0 0.00289945)
(-0.00421627 0 0.00139503)
(-0.00434156 0 -0.000333779)
(-0.00402094 0 -0.00078881)
(-0.00409579 0 -0.00112213)
(-0.0041425 0 -0.00109007)
(-0.00407312 0 -0.000853553)
(-0.00398371 0 -0.00051384)
(-0.00391819 0 -0.000332398)
(-0.00387868 0 -0.000257616)
(-0.00385368 0 -0.000223076)
(-0.00383374 0 -0.000125733)
(-0.00380947 0 -6.23072e-05)
(-0.00378221 0 -5.74349e-05)
(-0.00375343 0 -5.69687e-05)
(-0.0037251 0 -8.65995e-05)
(-0.00370627 0 -7.45298e-05)
(-0.0036997 0 -2.52281e-05)
(-0.0036923 0 -7.45085e-06)
(-0.00368041 0 -2.75838e-05)
(-0.00366407 0 -3.65752e-05)
(-0.00364922 0 -2.49402e-05)
(-0.00363488 0 -2.05143e-05)
(-0.00361558 0 -4.64704e-05)
(-0.00359766 0 -6.27495e-05)
(-0.00358087 0 -4.22153e-05)
(-0.00356638 0 -3.41346e-06)
(-0.003553 0 8.93342e-06)
(-0.00354116 0 1.04363e-05)
(-0.00353279 0 -1.17746e-06)
(-0.00352703 0 -4.54082e-06)
(-0.0035171 0 -2.08994e-06)
(-0.00350854 0 -3.22334e-06)
(-0.00350835 0 1.63212e-05)
(-0.00351816 0 5.47932e-05)
(-0.00353675 0 8.89337e-05)
(-0.00355943 0 8.92039e-05)
(-0.00358161 0 6.92508e-05)
(-0.00360409 0 4.46815e-05)
(-0.00362951 0 3.75735e-05)
(-0.00366114 0 5.51925e-05)
(-0.00369938 0 7.72491e-05)
(-0.00374278 0 0.000106727)
(-0.00379076 0 0.000119805)
(-0.00384316 0 0.000134069)
(-0.00390509 0 0.000162285)
(-0.00397886 0 0.000181313)
(-0.00406319 0 0.000191465)
(-0.00415872 0 0.000208356)
(-0.00426592 0 0.000240172)
(-0.00438396 0 0.000281179)
(-0.00451231 0 0.000323258)
(-0.00465052 0 0.000360246)
(-0.00479877 0 0.000388189)
(-0.0049589 0 0.000409656)
(-0.00513081 0 0.000427722)
(-0.0053146 0 0.000445499)
(-0.00550832 0 0.000466327)
(-0.00571126 0 0.000490439)
(-0.00592501 0 0.000516584)
(-0.00614931 0 0.000542664)
(-0.00638458 0 0.000566624)
(-0.00662966 0 0.000586582)
(-0.00688295 0 0.000604967)
(-0.00714606 0 0.000626373)
(-0.00741822 0 0.000649211)
(-0.00770499 0 0.000676291)
(-0.00799092 0 0.000695351)
(-0.00830215 0 0.000712909)